 *******************************************************************************
 ** Site#: 35412        For non-commercial use only    Version 20.225L 64BITS **
 *******************************************************************************
 ** Cite this program as: MOPAC2016, Version: 20.225L, James J. P. Stewart,   **
 ** Stewart Computational Chemistry, web: HTTP://OpenMOPAC.net. Days left: 364**
 *******************************************************************************
 **                                                                           **
 **                                MOPAC2016                                  **
 **                                                                           **
 *******************************************************************************

                              PM6 CALCULATION RESULTS

 *******************************************************************************
 *  CALCULATION DONE:                                Fri Aug 14 20:40:39 2020  *
 *  PM6        - The PM6 Hamiltonian to be used
 *  SINGLET    - SPIN STATE DEFINED AS A SINGLET
 *  OPT        - OPTIMIZE COORDINATES OF ALL ATOMS
 *
 *
 *
 *                 CHARGE ON SYSTEM = 0
 *
 *
 *
 *  PRECISE    - CRITERIA TO BE INCREASED BY 100 TIMES
 *  T=         - A TIME OF 172800.0 SECONDS REQUESTED
 *  DUMP=N     - RESTART FILE WRITTEN EVERY 7200.0 SECONDS REQUESTED
 *  AUX        - OUTPUT AUXILIARY INFORMATION
 *  PRTXYZ     - PRINT CARTESIAN COORDINATES
 *  LARGE      - EXPANDED OUTPUT TO BE PRINTED
 *******************************************************************************
 AUX LARGE CHARGE=0 SINGLET  PM6  OPT PRECISE PRTXYZ
 CN099.pdb
 32
   ATOM   CHEMICAL          X               Y               Z
  NUMBER   SYMBOL      (ANGSTROMS)     (ANGSTROMS)     (ANGSTROMS)
 
     1       C          3.90900000  *  -8.94500000  *  -0.54200000  *
     2       C          4.12700000  * -10.32600000  *  -0.47400000  *
     3       C          5.40000000  * -10.84100000  *  -0.22100000  *
     4       C          6.44100000  *  -9.94000000  *  -0.03900000  *
     5       C          6.21300000  *  -8.58500000  *  -0.10900000  *
     6       C          4.96200000  *  -8.04900000  *  -0.35800000  *
     7       N          7.73400000  * -10.18100000  *   0.21300000  *
     8       C          8.34000000  *  -9.00300000  *   0.30700000  *
     9       C          7.43200000  *  -7.98800000  *   0.11500000  *
    10       C          9.67600000  *  -8.73500000  *   0.56100000  *
    11       N         10.02900000  *  -7.44600000  *   0.61500000  *
    12       C          9.16100000  *  -6.44600000  *   0.43200000  *
    13       C          7.81500000  *  -6.66600000  *   0.16900000  *
    14       C         10.69800000  *  -9.88600000  *   0.79400000  *
    15       C         10.97900000  * -10.66400000  *  -0.53700000  *
    16       C          9.65900000  *  -5.14500000  *   0.51700000  *
    17       O         10.98200000  *  -5.03400000  *   0.79700000  *
    18       O          8.92900000  *  -4.16500000  *   0.34500000  *
    19       C         11.94400000  * -11.84300000  *  -0.28300000  *
    20       O         13.24100000  * -11.84500000  *  -0.84000000  *
    21       O         11.57100000  * -12.82800000  *   0.37500000  *
    22       H          2.93200000  *  -8.57700000  *  -0.73500000  *
    23       H          3.31100000  * -10.99300000  *  -0.61600000  *
    24       H          5.56000000  * -11.89100000  *  -0.16900000  *
    25       H          4.80900000  *  -7.00200000  *  -0.40600000  *
    26       H          7.13000000  *  -5.86500000  *   0.02500000  *
    27       H         11.64400000  *  -9.48800000  *   1.18600000  *
    28       H         10.25700000  * -10.62100000  *   1.48400000  *
    29       H         10.00700000  * -11.06600000  *  -0.87000000  *
    30       H         11.40200000  *  -9.97400000  *  -1.28200000  *
    31       H         11.33300000  *  -5.95800000  *   0.89800000  *
    32       H         13.37500000  * -11.00300000  *  -1.34500000  *
 


          CARTESIAN COORDINATES 

    NO.       ATOM           X           Y           Z

     1         C          3.9090     -8.9450     -0.5420
     2         C          4.1270    -10.3260     -0.4740
     3         C          5.4000    -10.8410     -0.2210
     4         C          6.4410     -9.9400     -0.0390
     5         C          6.2130     -8.5850     -0.1090
     6         C          4.9620     -8.0490     -0.3580
     7         N          7.7340    -10.1810      0.2130
     8         C          8.3400     -9.0030      0.3070
     9         C          7.4320     -7.9880      0.1150
    10         C          9.6760     -8.7350      0.5610
    11         N         10.0290     -7.4460      0.6150
    12         C          9.1610     -6.4460      0.4320
    13         C          7.8150     -6.6660      0.1690
    14         C         10.6980     -9.8860      0.7940
    15         C         10.9790    -10.6640     -0.5370
    16         C          9.6590     -5.1450      0.5170
    17         O         10.9820     -5.0340      0.7970
    18         O          8.9290     -4.1650      0.3450
    19         C         11.9440    -11.8430     -0.2830
    20         O         13.2410    -11.8450     -0.8400
    21         O         11.5710    -12.8280      0.3750
    22         H          2.9320     -8.5770     -0.7350
    23         H          3.3110    -10.9930     -0.6160
    24         H          5.5600    -11.8910     -0.1690
    25         H          4.8090     -7.0020     -0.4060
    26         H          7.1300     -5.8650      0.0250
    27         H         11.6440     -9.4880      1.1860
    28         H         10.2570    -10.6210      1.4840
    29         H         10.0070    -11.0660     -0.8700
    30         H         11.4020     -9.9740     -1.2820
    31         H         11.3330     -5.9580      0.8980
    32         H         13.3750    -11.0030     -1.3450

 General Reference for PM6:
 "Optimization of Parameters for Semiempirical Methods V: Modification of NDDO Approximations
 and Application to 70 Elements", J. J. P. Stewart, J. Mol. Mod., 13, 1173-1213 (2007)
 URL: https://link.springer.com/article/10.1007/s00894-007-0233-4

           Empirical Formula: C15 H11 N2 O4  =    32 atoms



      MOLECULAR POINT GROUP   :   C1  

          SINGLET SPECIFIED WITH ODD NUMBER OF ELECTRONS, CORRECT FAULT

 ******************************************************************************
 *                                                                            *
 *     Error and normal termination messages reported in this calculation     *
 *                                                                            *
 * SINGLET SPECIFIED WITH ODD NUMBER OF ELECTRONS, CORRECT FAULT              *
 * JOB ENDED NORMALLY                                                         *
 *                                                                            *
 ******************************************************************************



 TOTAL JOB TIME:             0.01 SECONDS

 == MOPAC DONE ==
