 *******************************************************************************
 ** Site#: 35412        For non-commercial use only    Version 20.225L 64BITS **
 *******************************************************************************
 ** Cite this program as: MOPAC2016, Version: 20.225L, James J. P. Stewart,   **
 ** Stewart Computational Chemistry, web: HTTP://OpenMOPAC.net. Days left: 364**
 *******************************************************************************
 **                                                                           **
 **                                MOPAC2016                                  **
 **                                                                           **
 *******************************************************************************

                              PM6 CALCULATION RESULTS

 *******************************************************************************
 *  CALCULATION DONE:                                Fri Aug 14 20:40:39 2020  *
 *  PM6        - The PM6 Hamiltonian to be used
 *  SINGLET    - SPIN STATE DEFINED AS A SINGLET
 *  OPT        - OPTIMIZE COORDINATES OF ALL ATOMS
 *
 *
 *
 *                 CHARGE ON SYSTEM = 0
 *
 *
 *
 *  PRECISE    - CRITERIA TO BE INCREASED BY 100 TIMES
 *  T=         - A TIME OF 172800.0 SECONDS REQUESTED
 *  DUMP=N     - RESTART FILE WRITTEN EVERY 7200.0 SECONDS REQUESTED
 *  AUX        - OUTPUT AUXILIARY INFORMATION
 *  PRTXYZ     - PRINT CARTESIAN COORDINATES
 *  LARGE      - EXPANDED OUTPUT TO BE PRINTED
 *******************************************************************************
 AUX LARGE CHARGE=0 SINGLET  PM6  OPT PRECISE PRTXYZ
 CN093.pdb
 27
   ATOM   CHEMICAL          X               Y               Z
  NUMBER   SYMBOL      (ANGSTROMS)     (ANGSTROMS)     (ANGSTROMS)
 
     1       C          4.39000000  *  -8.10400000  *  -0.02300000  *
     2       C          4.47800000  *  -9.50100000  *  -0.03900000  *
     3       C          5.71700000  * -10.14300000  *  -0.03100000  *
     4       C          6.85700000  *  -9.35300000  *  -0.00600000  *
     5       C          6.75900000  *  -7.98000000  *   0.01000000  *
     6       C          5.54300000  *  -7.31800000  *   0.00200000  *
     7       N          8.14000000  *  -9.73100000  *   0.00600000  *
     8       C          8.86400000  *  -8.62100000  *   0.02900000  *
     9       C          8.05300000  *  -7.51300000  *   0.03200000  *
    10       C         10.23800000  *  -8.49700000  *   0.04800000  *
    11       N         10.74400000  *  -7.27200000  *   0.07000000  *
    12       C          9.97600000  *  -6.18100000  *   0.07300000  *
    13       C          8.58700000  *  -6.24100000  *   0.05400000  *
    14       C         11.11300000  *  -9.65400000  *   0.04500000  *
    15       C         12.42900000  *  -9.46800000  *   0.06400000  *
    16       C         10.64600000  *  -4.97700000  *   0.09700000  *
    17       O         12.00400000  *  -5.06800000  *   0.11300000  *
    18       O         10.04300000  *  -3.90300000  *   0.10200000  *
    19       H          3.43700000  *  -7.63800000  *  -0.02900000  *
    20       H          3.58700000  * -10.08100000  *  -0.05700000  *
    21       H          5.78300000  * -11.20400000  *  -0.04300000  *
    22       H          5.49000000  *  -6.26000000  *   0.01400000  *
    23       H          7.98400000  *  -5.36600000  *   0.05700000  *
    24       H         10.70600000  * -10.63600000  *   0.02800000  *
    25       H         12.81900000  *  -8.47900000  *   0.08100000  *
    26       H         13.08600000  * -10.29800000  *   0.06200000  *
    27       H         12.22400000  *  -6.04700000  *   0.10400000  *
 


          CARTESIAN COORDINATES 

    NO.       ATOM           X           Y           Z

     1         C          4.3900     -8.1040     -0.0230
     2         C          4.4780     -9.5010     -0.0390
     3         C          5.7170    -10.1430     -0.0310
     4         C          6.8570     -9.3530     -0.0060
     5         C          6.7590     -7.9800      0.0100
     6         C          5.5430     -7.3180      0.0020
     7         N          8.1400     -9.7310      0.0060
     8         C          8.8640     -8.6210      0.0290
     9         C          8.0530     -7.5130      0.0320
    10         C         10.2380     -8.4970      0.0480
    11         N         10.7440     -7.2720      0.0700
    12         C          9.9760     -6.1810      0.0730
    13         C          8.5870     -6.2410      0.0540
    14         C         11.1130     -9.6540      0.0450
    15         C         12.4290     -9.4680      0.0640
    16         C         10.6460     -4.9770      0.0970
    17         O         12.0040     -5.0680      0.1130
    18         O         10.0430     -3.9030      0.1020
    19         H          3.4370     -7.6380     -0.0290
    20         H          3.5870    -10.0810     -0.0570
    21         H          5.7830    -11.2040     -0.0430
    22         H          5.4900     -6.2600      0.0140
    23         H          7.9840     -5.3660      0.0570
    24         H         10.7060    -10.6360      0.0280
    25         H         12.8190     -8.4790      0.0810
    26         H         13.0860    -10.2980      0.0620
    27         H         12.2240     -6.0470      0.1040

 General Reference for PM6:
 "Optimization of Parameters for Semiempirical Methods V: Modification of NDDO Approximations
 and Application to 70 Elements", J. J. P. Stewart, J. Mol. Mod., 13, 1173-1213 (2007)
 URL: https://link.springer.com/article/10.1007/s00894-007-0233-4

           Empirical Formula: C14 H9 N2 O2  =    27 atoms



      MOLECULAR POINT GROUP   :   Cs  

          SINGLET SPECIFIED WITH ODD NUMBER OF ELECTRONS, CORRECT FAULT

 ******************************************************************************
 *                                                                            *
 *     Error and normal termination messages reported in this calculation     *
 *                                                                            *
 * SINGLET SPECIFIED WITH ODD NUMBER OF ELECTRONS, CORRECT FAULT              *
 * JOB ENDED NORMALLY                                                         *
 *                                                                            *
 ******************************************************************************



 TOTAL JOB TIME:             0.01 SECONDS

 == MOPAC DONE ==
