 *******************************************************************************
 ** Site#: 35412        For non-commercial use only    Version 20.225L 64BITS **
 *******************************************************************************
 ** Cite this program as: MOPAC2016, Version: 20.225L, James J. P. Stewart,   **
 ** Stewart Computational Chemistry, web: HTTP://OpenMOPAC.net. Days left: 364**
 *******************************************************************************
 **                                                                           **
 **                                MOPAC2016                                  **
 **                                                                           **
 *******************************************************************************

                              PM6 CALCULATION RESULTS

 *******************************************************************************
 *  CALCULATION DONE:                                Fri Aug 14 20:40:39 2020  *
 *  PM6        - The PM6 Hamiltonian to be used
 *  SINGLET    - SPIN STATE DEFINED AS A SINGLET
 *  OPT        - OPTIMIZE COORDINATES OF ALL ATOMS
 *
 *
 *
 *                 CHARGE ON SYSTEM = 0
 *
 *
 *
 *  PRECISE    - CRITERIA TO BE INCREASED BY 100 TIMES
 *  T=         - A TIME OF 172800.0 SECONDS REQUESTED
 *  DUMP=N     - RESTART FILE WRITTEN EVERY 7200.0 SECONDS REQUESTED
 *  AUX        - OUTPUT AUXILIARY INFORMATION
 *  PRTXYZ     - PRINT CARTESIAN COORDINATES
 *  LARGE      - EXPANDED OUTPUT TO BE PRINTED
 *******************************************************************************
 AUX LARGE CHARGE=0 SINGLET  PM6  OPT PRECISE PRTXYZ
 CN100.pdb
 46
   ATOM   CHEMICAL          X               Y               Z
  NUMBER   SYMBOL      (ANGSTROMS)     (ANGSTROMS)     (ANGSTROMS)
 
     1       C          1.01600000  *  -7.78300000  *  -0.32700000  *
     2       C          0.95300000  *  -9.16800000  *  -0.13300000  *
     3       C          2.11200000  *  -9.91500000  *   0.08800000  *
     4       C          3.32400000  *  -9.24100000  *   0.10800000  *
     5       C          3.37400000  *  -7.87900000  *  -0.08300000  *
     6       C          2.24100000  *  -7.11600000  *  -0.30400000  *
     7       N          4.55500000  *  -9.72900000  *   0.29900000  *
     8       C          5.39500000  *  -8.70200000  *   0.23200000  *
     9       C          4.70500000  *  -7.53800000  *  -0.00300000  *
    10       C          6.77200000  *  -8.69800000  *   0.36600000  *
    11       N          7.40200000  *  -7.53300000  *   0.26100000  *
    12       C          6.74600000  *  -6.39100000  *   0.03300000  *
    13       C          5.36400000  *  -6.33300000  *  -0.11300000  *
    14       C          7.54800000  *  -9.95100000  *   0.61800000  *
    15       C          9.00700000  *  -9.73900000  *   0.13000000  *
    16       C          7.50600000  *  -5.23400000  *  -0.05400000  *
    17       O          8.83700000  *  -5.37700000  *   0.14200000  *
    18       O          6.98400000  *  -4.14400000  *  -0.29000000  *
    19       S         10.02000000  * -11.19100000  *   0.44200000  *
    20       C         11.69200000  * -10.85300000  *  -0.16800000  *
    21       C         12.57300000  * -12.09600000  *   0.03800000  *
    22       N         13.83600000  * -11.88600000  *  -0.50300000  *
    23       C         11.95800000  * -13.15700000  *  -0.75400000  *
    24       O         12.33500000  * -13.31800000  *  -1.91700000  *
    25       O         10.94900000  * -13.92100000  *  -0.22600000  *
    26       C         14.90400000  * -12.28800000  *   0.16700000  *
    27       C         16.26300000  * -12.13000000  *  -0.43600000  *
    28       O         14.77600000  * -12.81000000  *   1.28100000  *
    29       H          0.12200000  *  -7.23700000  *  -0.49200000  *
    30       H          0.01000000  *  -9.65800000  *  -0.15400000  *
    31       H          2.06300000  * -10.96700000  *   0.23500000  *
    32       H          2.30000000  *  -6.06800000  *  -0.44900000  *
    33       H          4.85500000  *  -5.41600000  *  -0.29400000  *
    34       H          7.55800000  * -10.14700000  *   1.70100000  *
    35       H          7.04900000  * -10.80200000  *   0.12500000  *
    36       H          9.00100000  *  -9.52700000  *  -0.94800000  *
    37       H          9.44200000  *  -8.88300000  *   0.66200000  *
    38       H          8.98500000  *  -6.34100000  *   0.32400000  *
    39       H         11.64300000  * -10.62500000  *  -1.24300000  *
    40       H         12.11200000  *  -9.99000000  *   0.37200000  *
    41       H         12.60800000  * -12.36200000  *   1.10700000  *
    42       H         13.93300000  * -11.48800000  *  -1.40700000  *
    43       H         10.76500000  * -13.64000000  *   0.70600000  *
    44       H         17.01100000  * -12.71800000  *   0.12200000  *
    45       H         16.53600000  * -11.06400000  *  -0.40600000  *
    46       H         16.22400000  * -12.42100000  *  -1.49600000  *
 


          CARTESIAN COORDINATES 

    NO.       ATOM           X           Y           Z

     1         C          1.0160     -7.7830     -0.3270
     2         C          0.9530     -9.1680     -0.1330
     3         C          2.1120     -9.9150      0.0880
     4         C          3.3240     -9.2410      0.1080
     5         C          3.3740     -7.8790     -0.0830
     6         C          2.2410     -7.1160     -0.3040
     7         N          4.5550     -9.7290      0.2990
     8         C          5.3950     -8.7020      0.2320
     9         C          4.7050     -7.5380     -0.0030
    10         C          6.7720     -8.6980      0.3660
    11         N          7.4020     -7.5330      0.2610
    12         C          6.7460     -6.3910      0.0330
    13         C          5.3640     -6.3330     -0.1130
    14         C          7.5480     -9.9510      0.6180
    15         C          9.0070     -9.7390      0.1300
    16         C          7.5060     -5.2340     -0.0540
    17         O          8.8370     -5.3770      0.1420
    18         O          6.9840     -4.1440     -0.2900
    19         S         10.0200    -11.1910      0.4420
    20         C         11.6920    -10.8530     -0.1680
    21         C         12.5730    -12.0960      0.0380
    22         N         13.8360    -11.8860     -0.5030
    23         C         11.9580    -13.1570     -0.7540
    24         O         12.3350    -13.3180     -1.9170
    25         O         10.9490    -13.9210     -0.2260
    26         C         14.9040    -12.2880      0.1670
    27         C         16.2630    -12.1300     -0.4360
    28         O         14.7760    -12.8100      1.2810
    29         H          0.1220     -7.2370     -0.4920
    30         H          0.0100     -9.6580     -0.1540
    31         H          2.0630    -10.9670      0.2350
    32         H          2.3000     -6.0680     -0.4490
    33         H          4.8550     -5.4160     -0.2940
    34         H          7.5580    -10.1470      1.7010
    35         H          7.0490    -10.8020      0.1250
    36         H          9.0010     -9.5270     -0.9480
    37         H          9.4420     -8.8830      0.6620
    38         H          8.9850     -6.3410      0.3240
    39         H         11.6430    -10.6250     -1.2430
    40         H         12.1120     -9.9900      0.3720
    41         H         12.6080    -12.3620      1.1070
    42         H         13.9330    -11.4880     -1.4070
    43         H         10.7650    -13.6400      0.7060
    44         H         17.0110    -12.7180      0.1220
    45         H         16.5360    -11.0640     -0.4060
    46         H         16.2240    -12.4210     -1.4960

 General Reference for PM6:
 "Optimization of Parameters for Semiempirical Methods V: Modification of NDDO Approximations
 and Application to 70 Elements", J. J. P. Stewart, J. Mol. Mod., 13, 1173-1213 (2007)
 URL: https://link.springer.com/article/10.1007/s00894-007-0233-4

           Empirical Formula: C19 H18 N3 O5 S  =    46 atoms



      MOLECULAR POINT GROUP   :   C1  

          SINGLET SPECIFIED WITH ODD NUMBER OF ELECTRONS, CORRECT FAULT

 ******************************************************************************
 *                                                                            *
 *     Error and normal termination messages reported in this calculation     *
 *                                                                            *
 * SINGLET SPECIFIED WITH ODD NUMBER OF ELECTRONS, CORRECT FAULT              *
 * JOB ENDED NORMALLY                                                         *
 *                                                                            *
 ******************************************************************************



 TOTAL JOB TIME:             0.01 SECONDS

 == MOPAC DONE ==
