 *******************************************************************************
 ** Site#: 35412        For non-commercial use only    Version 20.225L 64BITS **
 *******************************************************************************
 ** Cite this program as: MOPAC2016, Version: 20.225L, James J. P. Stewart,   **
 ** Stewart Computational Chemistry, web: HTTP://OpenMOPAC.net. Days left: 364**
 *******************************************************************************
 **                                                                           **
 **                                MOPAC2016                                  **
 **                                                                           **
 *******************************************************************************

                              PM6 CALCULATION RESULTS

 *******************************************************************************
 *  CALCULATION DONE:                                Fri Aug 14 20:40:40 2020  *
 *  PM6        - The PM6 Hamiltonian to be used
 *  SINGLET    - SPIN STATE DEFINED AS A SINGLET
 *  OPT        - OPTIMIZE COORDINATES OF ALL ATOMS
 *
 *
 *
 *                 CHARGE ON SYSTEM = 0
 *
 *
 *
 *  PRECISE    - CRITERIA TO BE INCREASED BY 100 TIMES
 *  T=         - A TIME OF 172800.0 SECONDS REQUESTED
 *  DUMP=N     - RESTART FILE WRITTEN EVERY 7200.0 SECONDS REQUESTED
 *  AUX        - OUTPUT AUXILIARY INFORMATION
 *  PRTXYZ     - PRINT CARTESIAN COORDINATES
 *  LARGE      - EXPANDED OUTPUT TO BE PRINTED
 *******************************************************************************
 AUX LARGE CHARGE=0 SINGLET  PM6  OPT PRECISE PRTXYZ
 CN126.pdb
 35
   ATOM   CHEMICAL          X               Y               Z
  NUMBER   SYMBOL      (ANGSTROMS)     (ANGSTROMS)     (ANGSTROMS)
 
     1       C          2.37500000  *  -8.78300000  *  -0.04700000  *
     2       C          2.40600000  * -10.18300000  *  -0.05500000  *
     3       C          3.61900000  * -10.87400000  *  -0.04400000  *
     4       C          4.79000000  * -10.13000000  *  -0.02600000  *
     5       C          4.74600000  *  -8.75400000  *  -0.01800000  *
     6       C          3.55800000  *  -8.04500000  *  -0.02800000  *
     7       N          6.05900000  * -10.55800000  *  -0.01400000  *
     8       C          6.82800000  *  -9.47300000  *   0.00300000  *
     9       C          6.05700000  *  -8.33400000  *   0.00000000  *
    10       C          8.20700000  *  -9.38200000  *   0.01900000  *
    11       N          8.74200000  *  -8.16900000  *   0.02800000  *
    12       C          8.01900000  *  -7.05100000  *   0.02500000  *
    13       C          6.62700000  *  -7.07500000  *   0.01200000  *
    14       C          9.10900000  * -10.56000000  *   0.02200000  *
    15       C         10.54000000  * -10.02300000  *   0.08700000  *
    16       C          8.74300000  *  -5.85300000  *   0.03100000  *
    17       O          9.93400000  *  -5.79700000  *  -0.69100000  *
    18       O          8.32700000  *  -4.88100000  *   0.65500000  *
    19       C         11.50900000  * -11.14500000  *   0.10700000  *
    20       O         12.59200000  * -11.15300000  *  -0.78000000  *
    21       O         11.38400000  * -12.07000000  *   0.91900000  *
    22       C         10.69200000  *  -4.66800000  *  -0.19800000  *
    23       H          1.44000000  *  -8.28000000  *  -0.05500000  *
    24       H          1.49300000  * -10.72700000  *  -0.06900000  *
    25       H          3.64000000  * -11.93800000  *  -0.05100000  *
    26       H          3.54700000  *  -6.98600000  *  -0.02200000  *
    27       H          6.04600000  *  -6.18300000  *   0.00800000  *
    28       H          8.87800000  * -11.20500000  *   0.88100000  *
    29       H          8.94500000  * -11.15400000  *  -0.88700000  *
    30       H         10.74300000  *  -9.35600000  *  -0.76300000  *
    31       H         10.61700000  *  -9.46400000  *   1.03100000  *
    32       H         12.55800000  * -10.32500000  *  -1.34300000  *
    33       H         11.28600000  *  -4.23000000  *  -1.01300000  *
    34       H         11.36200000  *  -5.00400000  *   0.60700000  *
    35       H          9.99900000  *  -3.91100000  *   0.20000000  *
 


          CARTESIAN COORDINATES 

    NO.       ATOM           X           Y           Z

     1         C          2.3750     -8.7830     -0.0470
     2         C          2.4060    -10.1830     -0.0550
     3         C          3.6190    -10.8740     -0.0440
     4         C          4.7900    -10.1300     -0.0260
     5         C          4.7460     -8.7540     -0.0180
     6         C          3.5580     -8.0450     -0.0280
     7         N          6.0590    -10.5580     -0.0140
     8         C          6.8280     -9.4730      0.0030
     9         C          6.0570     -8.3340      0.0000
    10         C          8.2070     -9.3820      0.0190
    11         N          8.7420     -8.1690      0.0280
    12         C          8.0190     -7.0510      0.0250
    13         C          6.6270     -7.0750      0.0120
    14         C          9.1090    -10.5600      0.0220
    15         C         10.5400    -10.0230      0.0870
    16         C          8.7430     -5.8530      0.0310
    17         O          9.9340     -5.7970     -0.6910
    18         O          8.3270     -4.8810      0.6550
    19         C         11.5090    -11.1450      0.1070
    20         O         12.5920    -11.1530     -0.7800
    21         O         11.3840    -12.0700      0.9190
    22         C         10.6920     -4.6680     -0.1980
    23         H          1.4400     -8.2800     -0.0550
    24         H          1.4930    -10.7270     -0.0690
    25         H          3.6400    -11.9380     -0.0510
    26         H          3.5470     -6.9860     -0.0220
    27         H          6.0460     -6.1830      0.0080
    28         H          8.8780    -11.2050      0.8810
    29         H          8.9450    -11.1540     -0.8870
    30         H         10.7430     -9.3560     -0.7630
    31         H         10.6170     -9.4640      1.0310
    32         H         12.5580    -10.3250     -1.3430
    33         H         11.2860     -4.2300     -1.0130
    34         H         11.3620     -5.0040      0.6070
    35         H          9.9990     -3.9110      0.2000

 General Reference for PM6:
 "Optimization of Parameters for Semiempirical Methods V: Modification of NDDO Approximations
 and Application to 70 Elements", J. J. P. Stewart, J. Mol. Mod., 13, 1173-1213 (2007)
 URL: https://link.springer.com/article/10.1007/s00894-007-0233-4

           Empirical Formula: C16 H13 N2 O4  =    35 atoms



      MOLECULAR POINT GROUP   :   C1  

          SINGLET SPECIFIED WITH ODD NUMBER OF ELECTRONS, CORRECT FAULT

 ******************************************************************************
 *                                                                            *
 *     Error and normal termination messages reported in this calculation     *
 *                                                                            *
 * SINGLET SPECIFIED WITH ODD NUMBER OF ELECTRONS, CORRECT FAULT              *
 * JOB ENDED NORMALLY                                                         *
 *                                                                            *
 ******************************************************************************



 TOTAL JOB TIME:             0.04 SECONDS

 == MOPAC DONE ==
