 *******************************************************************************
 ** Site#: 35412        For non-commercial use only    Version 20.225L 64BITS **
 *******************************************************************************
 ** Cite this program as: MOPAC2016, Version: 20.225L, James J. P. Stewart,   **
 ** Stewart Computational Chemistry, web: HTTP://OpenMOPAC.net. Days left: 364**
 *******************************************************************************
 **                                                                           **
 **                                MOPAC2016                                  **
 **                                                                           **
 *******************************************************************************

                              PM6 CALCULATION RESULTS

 *******************************************************************************
 *  CALCULATION DONE:                                Fri Aug 14 20:40:40 2020  *
 *  PM6        - The PM6 Hamiltonian to be used
 *  SINGLET    - SPIN STATE DEFINED AS A SINGLET
 *  OPT        - OPTIMIZE COORDINATES OF ALL ATOMS
 *
 *
 *
 *                 CHARGE ON SYSTEM = 0
 *
 *
 *
 *  PRECISE    - CRITERIA TO BE INCREASED BY 100 TIMES
 *  T=         - A TIME OF 172800.0 SECONDS REQUESTED
 *  DUMP=N     - RESTART FILE WRITTEN EVERY 7200.0 SECONDS REQUESTED
 *  AUX        - OUTPUT AUXILIARY INFORMATION
 *  PRTXYZ     - PRINT CARTESIAN COORDINATES
 *  LARGE      - EXPANDED OUTPUT TO BE PRINTED
 *******************************************************************************
 AUX LARGE CHARGE=0 SINGLET  PM6  OPT PRECISE PRTXYZ
 CN125.pdb
 21
   ATOM   CHEMICAL          X               Y               Z
  NUMBER   SYMBOL      (ANGSTROMS)     (ANGSTROMS)     (ANGSTROMS)
 
     1       C          5.34800000  *  -9.99200000  *   0.11500000  *
     2       C          5.36300000  * -11.39000000  *   0.04400000  *
     3       C          6.56700000  * -12.08800000  *  -0.06700000  *
     4       C          7.74200000  * -11.35200000  *  -0.10600000  *
     5       C          7.71800000  *  -9.98100000  *  -0.03600000  *
     6       C          6.53900000  *  -9.26600000  *   0.07500000  *
     7       N          8.99700000  * -11.78600000  *  -0.20700000  *
     8       C          9.79000000  * -10.70200000  *  -0.20700000  *
     9       C          9.02200000  *  -9.54300000  *  -0.09900000  *
    10       C          9.47500000  *  -8.08700000  *  -0.05800000  *
    11       C         10.96700000  *  -7.90100000  *  -0.02000000  *
    12       O         11.75500000  *  -8.68300000  *   0.82000000  *
    13       O         11.49100000  *  -7.00900000  *  -0.70400000  *
    14       H          4.41900000  *  -9.48100000  *   0.19900000  *
    15       H          4.44600000  * -11.92700000  *   0.07600000  *
    16       H          6.58100000  * -13.15000000  *  -0.12100000  *
    17       H          6.54700000  *  -8.20600000  *   0.12700000  *
    18       H         10.85200000  * -10.72400000  *  -0.27900000  *
    19       H          9.02100000  *  -7.52000000  *  -0.88500000  *
    20       H          9.04000000  *  -7.66800000  *   0.86200000  *
    21       H         11.19300000  *  -9.31800000  *   1.32400000  *
 


          CARTESIAN COORDINATES 

    NO.       ATOM           X           Y           Z

     1         C          5.3480     -9.9920      0.1150
     2         C          5.3630    -11.3900      0.0440
     3         C          6.5670    -12.0880     -0.0670
     4         C          7.7420    -11.3520     -0.1060
     5         C          7.7180     -9.9810     -0.0360
     6         C          6.5390     -9.2660      0.0750
     7         N          8.9970    -11.7860     -0.2070
     8         C          9.7900    -10.7020     -0.2070
     9         C          9.0220     -9.5430     -0.0990
    10         C          9.4750     -8.0870     -0.0580
    11         C         10.9670     -7.9010     -0.0200
    12         O         11.7550     -8.6830      0.8200
    13         O         11.4910     -7.0090     -0.7040
    14         H          4.4190     -9.4810      0.1990
    15         H          4.4460    -11.9270      0.0760
    16         H          6.5810    -13.1500     -0.1210
    17         H          6.5470     -8.2060      0.1270
    18         H         10.8520    -10.7240     -0.2790
    19         H          9.0210     -7.5200     -0.8850
    20         H          9.0400     -7.6680      0.8620
    21         H         11.1930     -9.3180      1.3240

 General Reference for PM6:
 "Optimization of Parameters for Semiempirical Methods V: Modification of NDDO Approximations
 and Application to 70 Elements", J. J. P. Stewart, J. Mol. Mod., 13, 1173-1213 (2007)
 URL: https://link.springer.com/article/10.1007/s00894-007-0233-4

           Empirical Formula: C10 H8 N O2  =    21 atoms



      MOLECULAR POINT GROUP   :   C1  

          SINGLET SPECIFIED WITH ODD NUMBER OF ELECTRONS, CORRECT FAULT

 ******************************************************************************
 *                                                                            *
 *     Error and normal termination messages reported in this calculation     *
 *                                                                            *
 * SINGLET SPECIFIED WITH ODD NUMBER OF ELECTRONS, CORRECT FAULT              *
 * JOB ENDED NORMALLY                                                         *
 *                                                                            *
 ******************************************************************************



 TOTAL JOB TIME:             0.02 SECONDS

 == MOPAC DONE ==
