 *******************************************************************************
 ** Site#: 35412        For non-commercial use only    Version 20.225L 64BITS **
 *******************************************************************************
 ** Cite this program as: MOPAC2016, Version: 20.225L, James J. P. Stewart,   **
 ** Stewart Computational Chemistry, web: HTTP://OpenMOPAC.net. Days left: 364**
 *******************************************************************************
 **                                                                           **
 **                                MOPAC2016                                  **
 **                                                                           **
 *******************************************************************************

                              PM6 CALCULATION RESULTS

 *******************************************************************************
 *  CALCULATION DONE:                                Fri Aug 14 20:40:40 2020  *
 *  PM6        - The PM6 Hamiltonian to be used
 *  SINGLET    - SPIN STATE DEFINED AS A SINGLET
 *  OPT        - OPTIMIZE COORDINATES OF ALL ATOMS
 *
 *
 *
 *                 CHARGE ON SYSTEM = 0
 *
 *
 *
 *  PRECISE    - CRITERIA TO BE INCREASED BY 100 TIMES
 *  T=         - A TIME OF 172800.0 SECONDS REQUESTED
 *  DUMP=N     - RESTART FILE WRITTEN EVERY 7200.0 SECONDS REQUESTED
 *  AUX        - OUTPUT AUXILIARY INFORMATION
 *  PRTXYZ     - PRINT CARTESIAN COORDINATES
 *  LARGE      - EXPANDED OUTPUT TO BE PRINTED
 *******************************************************************************
 AUX LARGE CHARGE=0 SINGLET  PM6  OPT PRECISE PRTXYZ
 CN124.pdb
 17
   ATOM   CHEMICAL          X               Y               Z
  NUMBER   SYMBOL      (ANGSTROMS)     (ANGSTROMS)     (ANGSTROMS)
 
     1       C          5.40900000  *  -9.09700000  *  -0.00200000  *
     2       C          5.44400000  * -10.49600000  *  -0.00200000  *
     3       C          6.66000000  * -11.18100000  *  -0.00100000  *
     4       C          7.82800000  * -10.43200000  *   0.00000000  *
     5       C          7.78700000  *  -9.05800000  *   0.00100000  *
     6       C          6.59200000  *  -8.35700000  *   0.00000000  *
     7       N          9.09100000  * -10.85700000  *   0.00100000  *
     8       C          9.87500000  *  -9.77200000  *   0.00300000  *
     9       C          9.09600000  *  -8.62000000  *   0.00200000  *
    10       C          9.57400000  *  -7.23000000  *   0.00300000  *
    11       H         10.61600000  *  -7.02500000  *   0.00400000  *
    12       O          8.75900000  *  -6.30000000  *   0.00300000  *
    13       H          4.46900000  *  -8.59600000  *  -0.00300000  *
    14       H          4.53200000  * -11.04500000  *  -0.00400000  *
    15       H          6.68900000  * -12.24600000  *  -0.00200000  *
    16       H          6.57800000  *  -7.29400000  *   0.00000000  *
    17       H         10.93500000  *  -9.78800000  *   0.00400000  *
 


          CARTESIAN COORDINATES 

    NO.       ATOM           X           Y           Z

     1         C          5.4090     -9.0970     -0.0020
     2         C          5.4440    -10.4960     -0.0020
     3         C          6.6600    -11.1810     -0.0010
     4         C          7.8280    -10.4320      0.0000
     5         C          7.7870     -9.0580      0.0010
     6         C          6.5920     -8.3570      0.0000
     7         N          9.0910    -10.8570      0.0010
     8         C          9.8750     -9.7720      0.0030
     9         C          9.0960     -8.6200      0.0020
    10         C          9.5740     -7.2300      0.0030
    11         H         10.6160     -7.0250      0.0040
    12         O          8.7590     -6.3000      0.0030
    13         H          4.4690     -8.5960     -0.0030
    14         H          4.5320    -11.0450     -0.0040
    15         H          6.6890    -12.2460     -0.0020
    16         H          6.5780     -7.2940      0.0000
    17         H         10.9350     -9.7880      0.0040

 General Reference for PM6:
 "Optimization of Parameters for Semiempirical Methods V: Modification of NDDO Approximations
 and Application to 70 Elements", J. J. P. Stewart, J. Mol. Mod., 13, 1173-1213 (2007)
 URL: https://link.springer.com/article/10.1007/s00894-007-0233-4

           Empirical Formula: C9 H6 N O  =    17 atoms



      MOLECULAR POINT GROUP   :   Cs  

          SINGLET SPECIFIED WITH ODD NUMBER OF ELECTRONS, CORRECT FAULT

 ******************************************************************************
 *                                                                            *
 *     Error and normal termination messages reported in this calculation     *
 *                                                                            *
 * SINGLET SPECIFIED WITH ODD NUMBER OF ELECTRONS, CORRECT FAULT              *
 * JOB ENDED NORMALLY                                                         *
 *                                                                            *
 ******************************************************************************



 TOTAL JOB TIME:             0.01 SECONDS

 == MOPAC DONE ==
