 *******************************************************************************
 ** Site#: 35412        For non-commercial use only    Version 20.225L 64BITS **
 *******************************************************************************
 ** Cite this program as: MOPAC2016, Version: 20.225L, James J. P. Stewart,   **
 ** Stewart Computational Chemistry, web: HTTP://OpenMOPAC.net. Days left: 364**
 *******************************************************************************
 **                                                                           **
 **                                MOPAC2016                                  **
 **                                                                           **
 *******************************************************************************

                              PM6 CALCULATION RESULTS

 *******************************************************************************
 *  CALCULATION DONE:                                Fri Aug 14 20:41:22 2020  *
 *  PM6        - The PM6 Hamiltonian to be used
 *  SINGLET    - SPIN STATE DEFINED AS A SINGLET
 *  OPT        - OPTIMIZE COORDINATES OF ALL ATOMS
 *
 *
 *
 *                 CHARGE ON SYSTEM = 0
 *
 *
 *
 *  PRECISE    - CRITERIA TO BE INCREASED BY 100 TIMES
 *  T=         - A TIME OF 172800.0 SECONDS REQUESTED
 *  DUMP=N     - RESTART FILE WRITTEN EVERY 7200.0 SECONDS REQUESTED
 *  AUX        - OUTPUT AUXILIARY INFORMATION
 *  PRTXYZ     - PRINT CARTESIAN COORDINATES
 *  LARGE      - EXPANDED OUTPUT TO BE PRINTED
 *******************************************************************************
 AUX LARGE CHARGE=0 SINGLET  PM6  OPT PRECISE PRTXYZ
 CN278.pdb
 65
   ATOM   CHEMICAL          X               Y               Z
  NUMBER   SYMBOL      (ANGSTROMS)     (ANGSTROMS)     (ANGSTROMS)
 
     1       C         -3.26600000  *   2.81800000  *  -0.15900000  *
     2       C         -3.26900000  *   1.45500000  *  -0.03600000  *
     3       C         -2.08800000  *   0.69500000  *   0.04100000  *
     4       C         -0.86500000  *   1.38900000  *  -0.00600000  *
     5       C         -0.89300000  *   2.78900000  *  -0.16600000  *
     6       C         -2.09500000  *   3.49600000  *  -0.24200000  *
     7       C         -2.08100000  *  -0.69400000  *   0.24500000  *
     8       C         -0.85500000  *  -1.38100000  *   0.28800000  *
     9       C          0.37300000  *  -0.71300000  *   0.10200000  *
    10       C          0.37100000  *   0.71400000  *   0.09000000  *
    11       C         -3.25300000  *  -1.44800000  *   0.44200000  *
    12       C         -3.23200000  *  -2.78400000  *   0.73900000  *
    13       C         -2.05400000  *  -3.45300000  *   0.80400000  *
    14       C         -0.86500000  *  -2.76300000  *   0.55900000  *
    15       C          0.36800000  *  -3.53000000  *   0.65500000  *
    16       C          1.66300000  *  -2.95400000  *   0.13400000  *
    17       C          1.69300000  *  -1.65400000  *  -0.15800000  *
    18       C          1.71600000  *   1.65400000  *   0.30800000  *
    19       C          1.65700000  *   2.96800000  *   0.09300000  *
    20       C          0.32700000  *   3.56900000  *  -0.28800000  *
    21       O         -4.50200000  *   1.09300000  *  -0.05900000  *
    22       O         -4.49700000  *  -1.11500000  *   0.36400000  *
    23       O          0.21000000  *   4.76900000  *  -0.56000000  *
    24       O          0.28000000  *  -4.70500000  *   1.02900000  *
    25       O          2.85800000  *   3.73200000  *   0.34400000  *
    26       C          2.77600000  *   5.18500000  *   0.17200000  *
    27       O          2.84200000  *  -3.73200000  *  -0.16600000  *
    28       C          2.76700000  *  -5.17500000  *   0.08200000  *
    29       C          2.89900000  *  -1.12800000  *  -1.16900000  *
    30       C          4.48500000  *  -1.44800000  *  -1.03200000  *
    31       C          5.17800000  *  -0.71100000  *  -2.20400000  *
    32       O          4.88900000  *  -2.80700000  *  -1.15500000  *
    33       C          3.00700000  *   1.11100000  *   1.20200000  *
    34       C          4.57600000  *   1.41400000  *   0.91300000  *
    35       C          5.37200000  *   0.67200000  *   2.01700000  *
    36       O          5.00200000  *   2.76800000  *   0.99200000  *
    37       C         -4.84300000  *  -0.11200000  *  -0.39000000  *
    38       O         -2.19700000  *   4.88000000  *  -0.40700000  *
    39       O         -2.13800000  *  -4.81300000  *   1.10400000  *
    40       H         -4.18800000  *   3.34400000  *  -0.22200000  *
    41       H         -4.14500000  *  -3.30400000  *   0.89400000  *
    42       H          3.75500000  *   5.63900000  *   0.39300000  *
    43       H          2.02100000  *   5.59700000  *   0.85800000  *
    44       H          2.49400000  *   5.41900000  *  -0.86600000  *
    45       H          3.72600000  *  -5.64700000  *  -0.18700000  *
    46       H          1.96400000  *  -5.61300000  *  -0.52800000  *
    47       H          2.55900000  *  -5.35800000  *   1.14700000  *
    48       H          2.63000000  *  -1.51900000  *  -2.16000000  *
    49       H          2.79700000  *  -0.05000000  *  -1.21400000  *
    50       H          4.85500000  *  -1.05500000  *  -0.08800000  *
    51       H          6.26800000  *  -0.85800000  *  -2.13800000  *
    52       H          4.95000000  *   0.36200000  *  -2.14800000  *
    53       H          4.81200000  *  -1.11300000  *  -3.16100000  *
    54       H          4.51200000  *  -3.34300000  *  -0.42700000  *
    55       H          2.84100000  *   1.50800000  *   2.21300000  *
    56       H          2.89800000  *   0.03500000  *   1.25600000  *
    57       H          4.85100000  *   1.01600000  *  -0.06100000  *
    58       H          6.45200000  *   0.80800000  *   1.84800000  *
    59       H          5.13000000  *  -0.39800000  *   1.98500000  *
    60       H          5.10200000  *   1.07800000  *   3.00300000  *
    61       H          4.55500000  *   3.30900000  *   0.30500000  *
    62       H         -5.95500000  *  -0.11700000  *  -0.41800000  *
    63       H         -4.47300000  *  -0.30900000  *  -1.40700000  *
    64       H         -3.14900000  *   5.22600000  *  -0.43600000  *
    65       H         -3.08000000  *  -5.14900000  *   1.26800000  *
 


          CARTESIAN COORDINATES 

    NO.       ATOM           X           Y           Z

     1         C         -3.2660      2.8180     -0.1590
     2         C         -3.2690      1.4550     -0.0360
     3         C         -2.0880      0.6950      0.0410
     4         C         -0.8650      1.3890     -0.0060
     5         C         -0.8930      2.7890     -0.1660
     6         C         -2.0950      3.4960     -0.2420
     7         C         -2.0810     -0.6940      0.2450
     8         C         -0.8550     -1.3810      0.2880
     9         C          0.3730     -0.7130      0.1020
    10         C          0.3710      0.7140      0.0900
    11         C         -3.2530     -1.4480      0.4420
    12         C         -3.2320     -2.7840      0.7390
    13         C         -2.0540     -3.4530      0.8040
    14         C         -0.8650     -2.7630      0.5590
    15         C          0.3680     -3.5300      0.6550
    16         C          1.6630     -2.9540      0.1340
    17         C          1.6930     -1.6540     -0.1580
    18         C          1.7160      1.6540      0.3080
    19         C          1.6570      2.9680      0.0930
    20         C          0.3270      3.5690     -0.2880
    21         O         -4.5020      1.0930     -0.0590
    22         O         -4.4970     -1.1150      0.3640
    23         O          0.2100      4.7690     -0.5600
    24         O          0.2800     -4.7050      1.0290
    25         O          2.8580      3.7320      0.3440
    26         C          2.7760      5.1850      0.1720
    27         O          2.8420     -3.7320     -0.1660
    28         C          2.7670     -5.1750      0.0820
    29         C          2.8990     -1.1280     -1.1690
    30         C          4.4850     -1.4480     -1.0320
    31         C          5.1780     -0.7110     -2.2040
    32         O          4.8890     -2.8070     -1.1550
    33         C          3.0070      1.1110      1.2020
    34         C          4.5760      1.4140      0.9130
    35         C          5.3720      0.6720      2.0170
    36         O          5.0020      2.7680      0.9920
    37         C         -4.8430     -0.1120     -0.3900
    38         O         -2.1970      4.8800     -0.4070
    39         O         -2.1380     -4.8130      1.1040
    40         H         -4.1880      3.3440     -0.2220
    41         H         -4.1450     -3.3040      0.8940
    42         H          3.7550      5.6390      0.3930
    43         H          2.0210      5.5970      0.8580
    44         H          2.4940      5.4190     -0.8660
    45         H          3.7260     -5.6470     -0.1870
    46         H          1.9640     -5.6130     -0.5280
    47         H          2.5590     -5.3580      1.1470
    48         H          2.6300     -1.5190     -2.1600
    49         H          2.7970     -0.0500     -1.2140
    50         H          4.8550     -1.0550     -0.0880
    51         H          6.2680     -0.8580     -2.1380
    52         H          4.9500      0.3620     -2.1480
    53         H          4.8120     -1.1130     -3.1610
    54         H          4.5120     -3.3430     -0.4270
    55         H          2.8410      1.5080      2.2130
    56         H          2.8980      0.0350      1.2560
    57         H          4.8510      1.0160     -0.0610
    58         H          6.4520      0.8080      1.8480
    59         H          5.1300     -0.3980      1.9850
    60         H          5.1020      1.0780      3.0030
    61         H          4.5550      3.3090      0.3050
    62         H         -5.9550     -0.1170     -0.4180
    63         H         -4.4730     -0.3090     -1.4070
    64         H         -3.1490      5.2260     -0.4360
    65         H         -3.0800     -5.1490      1.2680

 General Reference for PM6:
 "Optimization of Parameters for Semiempirical Methods V: Modification of NDDO Approximations
 and Application to 70 Elements", J. J. P. Stewart, J. Mol. Mod., 13, 1173-1213 (2007)
 URL: https://link.springer.com/article/10.1007/s00894-007-0233-4

           Empirical Formula: C29 H26 O10  =    65 atoms



      MOLECULAR POINT GROUP   :   C1  


 SINGLET STATE CALCULATION


      RHF CALCULATION, NO. OF DOUBLY OCCUPIED LEVELS = 101


          Geometry optimization using L-BFGS
 CYCLE:     1 TIME:   0.180 TIME LEFT:  2.00D  GRAD.:   401.406 HEAT: -189.0056
 CYCLE:     2 TIME:   0.070 TIME LEFT:  2.00D  GRAD.:   394.614 HEAT: -190.6034
 CYCLE:     3 TIME:   0.094 TIME LEFT:  2.00D  GRAD.:   131.517 HEAT: -257.6642
 CYCLE:     4 TIME:   0.094 TIME LEFT:  2.00D  GRAD.:   394.752 HEAT: -190.6044
 CYCLE:     5 TIME:   0.078 TIME LEFT:  2.00D  GRAD.:   131.589 HEAT: -257.6642
 CYCLE:     6 TIME:   0.094 TIME LEFT:  2.00D  GRAD.:   100.878 HEAT: -269.0210
 CYCLE:     7 TIME:   0.086 TIME LEFT:  2.00D  GRAD.:   126.813 HEAT: -276.0828
 CYCLE:     8 TIME:   0.109 TIME LEFT:  2.00D  GRAD.:    88.830 HEAT: -280.3319
 CYCLE:     9 TIME:   0.086 TIME LEFT:  2.00D  GRAD.:    54.626 HEAT: -282.4770
 CYCLE:    10 TIME:   0.078 TIME LEFT:  2.00D  GRAD.:    45.805 HEAT: -285.1571
 CYCLE:    11 TIME:   0.070 TIME LEFT:  2.00D  GRAD.:    54.210 HEAT: -287.7166
 CYCLE:    12 TIME:   0.086 TIME LEFT:  2.00D  GRAD.:   110.079 HEAT: -289.0512
 CYCLE:    13 TIME:   0.078 TIME LEFT:  2.00D  GRAD.:    38.745 HEAT: -291.7623
 CYCLE:    14 TIME:   0.078 TIME LEFT:  2.00D  GRAD.:    33.039 HEAT: -292.8493
 CYCLE:    15 TIME:   0.070 TIME LEFT:  2.00D  GRAD.:    41.728 HEAT: -294.4339
 CYCLE:    16 TIME:   0.070 TIME LEFT:  2.00D  GRAD.:    61.085 HEAT: -296.4398
 CYCLE:    17 TIME:   0.078 TIME LEFT:  2.00D  GRAD.:    57.808 HEAT: -297.9037
 CYCLE:    18 TIME:   0.070 TIME LEFT:  2.00D  GRAD.:    29.081 HEAT: -299.0633
 CYCLE:    19 TIME:   0.078 TIME LEFT:  2.00D  GRAD.:    27.556 HEAT: -299.7135
 CYCLE:    20 TIME:   0.086 TIME LEFT:  2.00D  GRAD.:    35.582 HEAT: -300.4055
 CYCLE:    21 TIME:   0.094 TIME LEFT:  2.00D  GRAD.:    33.310 HEAT: -301.5096
 CYCLE:    22 TIME:   0.094 TIME LEFT:  2.00D  GRAD.:    34.610 HEAT: -302.2305
 CYCLE:    23 TIME:   0.070 TIME LEFT:  2.00D  GRAD.:    26.035 HEAT: -302.7484
 CYCLE:    24 TIME:   0.070 TIME LEFT:  2.00D  GRAD.:    21.877 HEAT: -303.0993
 CYCLE:    25 TIME:   0.078 TIME LEFT:  2.00D  GRAD.:    27.362 HEAT: -303.7347
 CYCLE:    26 TIME:   0.094 TIME LEFT:  2.00D  GRAD.:    46.035 HEAT: -304.4138
 CYCLE:    27 TIME:   0.070 TIME LEFT:  2.00D  GRAD.:    25.775 HEAT: -305.1302
 CYCLE:    28 TIME:   0.078 TIME LEFT:  2.00D  GRAD.:    22.592 HEAT: -305.7685
 CYCLE:    29 TIME:   0.078 TIME LEFT:  2.00D  GRAD.:    25.720 HEAT: -306.3444
 CYCLE:    30 TIME:   0.078 TIME LEFT:  2.00D  GRAD.:    51.546 HEAT: -306.8484
 CYCLE:    31 TIME:   0.062 TIME LEFT:  2.00D  GRAD.:    23.119 HEAT: -307.6066
 CYCLE:    32 TIME:   0.078 TIME LEFT:  2.00D  GRAD.:    20.446 HEAT: -308.0002
 CYCLE:    33 TIME:   0.086 TIME LEFT:  2.00D  GRAD.:    26.748 HEAT: -308.5541
 CYCLE:    34 TIME:   0.102 TIME LEFT:  2.00D  GRAD.:    40.230 HEAT: -309.0257
 CYCLE:    35 TIME:   0.094 TIME LEFT:  2.00D  GRAD.:    22.706 HEAT: -309.5077
 CYCLE:    36 TIME:   0.078 TIME LEFT:  2.00D  GRAD.:    20.783 HEAT: -310.0329
 CYCLE:    37 TIME:   0.078 TIME LEFT:  2.00D  GRAD.:    31.328 HEAT: -310.3570
 CYCLE:    38 TIME:   0.070 TIME LEFT:  2.00D  GRAD.:    27.331 HEAT: -310.8277
 CYCLE:    39 TIME:   0.078 TIME LEFT:  2.00D  GRAD.:    25.250 HEAT: -311.2072
 CYCLE:    40 TIME:   0.086 TIME LEFT:  2.00D  GRAD.:    18.677 HEAT: -311.5318
 CYCLE:    41 TIME:   0.070 TIME LEFT:  2.00D  GRAD.:    18.468 HEAT: -311.9001
 CYCLE:    42 TIME:   0.086 TIME LEFT:  2.00D  GRAD.:    41.480 HEAT: -312.2592
 CYCLE:    43 TIME:   0.078 TIME LEFT:  2.00D  GRAD.:    18.562 HEAT: -312.7019
 CYCLE:    44 TIME:   0.070 TIME LEFT:  2.00D  GRAD.:    15.818 HEAT: -312.9313
 CYCLE:    45 TIME:   0.070 TIME LEFT:  2.00D  GRAD.:    18.490 HEAT: -313.1543
 CYCLE:    46 TIME:   0.094 TIME LEFT:  2.00D  GRAD.:    19.927 HEAT: -313.4312
 CYCLE:    47 TIME:   0.086 TIME LEFT:  2.00D  GRAD.:    18.511 HEAT: -313.7304
 CYCLE:    48 TIME:   0.102 TIME LEFT:  2.00D  GRAD.:    16.047 HEAT: -314.0202
 CYCLE:    49 TIME:   0.086 TIME LEFT:  2.00D  GRAD.:    15.509 HEAT: -314.2334
 CYCLE:    50 TIME:   0.078 TIME LEFT:  2.00D  GRAD.:    17.535 HEAT: -314.5363
 CYCLE:    51 TIME:   0.078 TIME LEFT:  2.00D  GRAD.:    21.255 HEAT: -314.9087
 CYCLE:    52 TIME:   0.078 TIME LEFT:  2.00D  GRAD.:    26.847 HEAT: -315.2956
 CYCLE:    53 TIME:   0.086 TIME LEFT:  2.00D  GRAD.:    23.719 HEAT: -315.7507
 CYCLE:    54 TIME:   0.070 TIME LEFT:  2.00D  GRAD.:    20.581 HEAT: -316.1791
 CYCLE:    55 TIME:   0.070 TIME LEFT:  2.00D  GRAD.:    20.621 HEAT: -316.5126
 CYCLE:    56 TIME:   0.078 TIME LEFT:  2.00D  GRAD.:    17.034 HEAT: -316.7411
 CYCLE:    57 TIME:   0.070 TIME LEFT:  2.00D  GRAD.:    13.208 HEAT: -316.9022
 CYCLE:    58 TIME:   0.078 TIME LEFT:  2.00D  GRAD.:    13.935 HEAT: -317.0926
 CYCLE:    59 TIME:   0.086 TIME LEFT:  2.00D  GRAD.:    18.526 HEAT: -317.2811
 CYCLE:    60 TIME:   0.094 TIME LEFT:  2.00D  GRAD.:    15.013 HEAT: -317.4659
 CYCLE:    61 TIME:   0.094 TIME LEFT:  2.00D  GRAD.:    11.797 HEAT: -317.5893
 CYCLE:    62 TIME:   0.086 TIME LEFT:  2.00D  GRAD.:    10.321 HEAT: -317.6819
 CYCLE:    63 TIME:   0.062 TIME LEFT:  2.00D  GRAD.:    10.363 HEAT: -317.7828
 CYCLE:    64 TIME:   0.078 TIME LEFT:  2.00D  GRAD.:    15.990 HEAT: -317.8753
 CYCLE:    65 TIME:   0.086 TIME LEFT:  2.00D  GRAD.:     9.807 HEAT: -317.9785
 CYCLE:    66 TIME:   0.070 TIME LEFT:  2.00D  GRAD.:    10.103 HEAT: -318.0888
 CYCLE:    67 TIME:   0.078 TIME LEFT:  2.00D  GRAD.:    11.458 HEAT: -318.1857
 CYCLE:    68 TIME:   0.070 TIME LEFT:  2.00D  GRAD.:    21.211 HEAT: -318.2494
 CYCLE:    69 TIME:   0.070 TIME LEFT:  2.00D  GRAD.:     8.276 HEAT: -318.3554
 CYCLE:    70 TIME:   0.078 TIME LEFT:  2.00D  GRAD.:     7.851 HEAT: -318.4066
 CYCLE:    71 TIME:   0.078 TIME LEFT:  2.00D  GRAD.:    11.177 HEAT: -318.4766
 CYCLE:    72 TIME:   0.078 TIME LEFT:  2.00D  GRAD.:    21.223 HEAT: -318.5638
 CYCLE:    73 TIME:   0.078 TIME LEFT:  2.00D  GRAD.:    12.328 HEAT: -318.6825
 CYCLE:    74 TIME:   0.109 TIME LEFT:  2.00D  GRAD.:    10.941 HEAT: -318.8242
 CYCLE:    75 TIME:   0.086 TIME LEFT:  2.00D  GRAD.:    12.601 HEAT: -318.9376
 CYCLE:    76 TIME:   0.086 TIME LEFT:  2.00D  GRAD.:    17.144 HEAT: -319.0967
 CYCLE:    77 TIME:   0.070 TIME LEFT:  2.00D  GRAD.:    14.122 HEAT: -319.2714
 CYCLE:    78 TIME:   0.078 TIME LEFT:  2.00D  GRAD.:    21.784 HEAT: -319.4080
 CYCLE:    79 TIME:   0.070 TIME LEFT:  2.00D  GRAD.:    13.646 HEAT: -319.6134
 CYCLE:    80 TIME:   0.078 TIME LEFT:  2.00D  GRAD.:    13.859 HEAT: -319.7702
 CYCLE:    81 TIME:   0.078 TIME LEFT:  2.00D  GRAD.:    15.427 HEAT: -319.9715
 CYCLE:    82 TIME:   0.078 TIME LEFT:  2.00D  GRAD.:    16.396 HEAT: -320.2243
 CYCLE:    83 TIME:   0.070 TIME LEFT:  2.00D  GRAD.:    24.046 HEAT: -320.3510
 CYCLE:    84 TIME:   0.070 TIME LEFT:  2.00D  GRAD.:    11.065 HEAT: -320.4987
 CYCLE:    85 TIME:   0.094 TIME LEFT:  2.00D  GRAD.:    10.285 HEAT: -320.5912
 CYCLE:    86 TIME:   0.070 TIME LEFT:  2.00D  GRAD.:    13.234 HEAT: -320.7228
 CYCLE:    87 TIME:   0.117 TIME LEFT:  2.00D  GRAD.:    25.996 HEAT: -320.8423
 CYCLE:    88 TIME:   0.070 TIME LEFT:  2.00D  GRAD.:    11.168 HEAT: -320.9915
 CYCLE:    89 TIME:   0.078 TIME LEFT:  2.00D  GRAD.:     9.282 HEAT: -321.0683
 CYCLE:    90 TIME:   0.078 TIME LEFT:  2.00D  GRAD.:    13.175 HEAT: -321.1767
 CYCLE:    91 TIME:   0.086 TIME LEFT:  2.00D  GRAD.:    14.968 HEAT: -321.3076
 CYCLE:    92 TIME:   0.070 TIME LEFT:  2.00D  GRAD.:    28.512 HEAT: -321.3648
 CYCLE:    93 TIME:   0.086 TIME LEFT:  2.00D  GRAD.:    13.262 HEAT: -321.5475
 CYCLE:    94 TIME:   0.070 TIME LEFT:  2.00D  GRAD.:     7.965 HEAT: -321.6116
 CYCLE:    95 TIME:   0.078 TIME LEFT:  2.00D  GRAD.:     8.950 HEAT: -321.6816
 CYCLE:    96 TIME:   0.094 TIME LEFT:  2.00D  GRAD.:    11.576 HEAT: -321.7659
 CYCLE:    97 TIME:   0.070 TIME LEFT:  2.00D  GRAD.:    22.248 HEAT: -321.8589
 CYCLE:    98 TIME:   0.078 TIME LEFT:  2.00D  GRAD.:    10.593 HEAT: -321.9771
 CYCLE:    99 TIME:   0.070 TIME LEFT:  2.00D  GRAD.:     7.738 HEAT: -322.0367
 CYCLE:   100 TIME:   0.117 TIME LEFT:  2.00D  GRAD.:    10.136 HEAT: -322.1175
 CYCLE:   101 TIME:   0.078 TIME LEFT:  2.00D  GRAD.:    12.485 HEAT: -322.2008
 CYCLE:   102 TIME:   0.062 TIME LEFT:  2.00D  GRAD.:    10.655 HEAT: -322.2941
 CYCLE:   103 TIME:   0.086 TIME LEFT:  2.00D  GRAD.:     7.188 HEAT: -322.3724
 CYCLE:   104 TIME:   0.078 TIME LEFT:  2.00D  GRAD.:     9.435 HEAT: -322.4308
 CYCLE:   105 TIME:   0.070 TIME LEFT:  2.00D  GRAD.:     8.106 HEAT: -322.4804
 CYCLE:   106 TIME:   0.070 TIME LEFT:  2.00D  GRAD.:     7.002 HEAT: -322.5308
 CYCLE:   107 TIME:   0.078 TIME LEFT:  2.00D  GRAD.:    11.215 HEAT: -322.5728
 CYCLE:   108 TIME:   0.070 TIME LEFT:  2.00D  GRAD.:     5.526 HEAT: -322.6072
 CYCLE:   109 TIME:   0.078 TIME LEFT:  2.00D  GRAD.:     4.661 HEAT: -322.6310
 CYCLE:   110 TIME:   0.078 TIME LEFT:  2.00D  GRAD.:     5.848 HEAT: -322.6641
 CYCLE:   111 TIME:   0.078 TIME LEFT:  2.00D  GRAD.:    15.019 HEAT: -322.6651
 CYCLE:   112 TIME:   0.086 TIME LEFT:  2.00D  GRAD.:     5.363 HEAT: -322.7006
 CYCLE:   113 TIME:   0.117 TIME LEFT:  2.00D  GRAD.:     4.065 HEAT: -322.7164
 CYCLE:   114 TIME:   0.078 TIME LEFT:  2.00D  GRAD.:     6.399 HEAT: -322.7461
 CYCLE:   115 TIME:   0.078 TIME LEFT:  2.00D  GRAD.:     7.080 HEAT: -322.7782
 CYCLE:   116 TIME:   0.086 TIME LEFT:  2.00D  GRAD.:    22.753 HEAT: -322.7413
 CYCLE:   117 TIME:   0.070 TIME LEFT:  2.00D  GRAD.:     4.304 HEAT: -322.8226
 CYCLE:   118 TIME:   0.078 TIME LEFT:  2.00D  GRAD.:     2.870 HEAT: -322.8312
 CYCLE:   119 TIME:   0.086 TIME LEFT:  2.00D  GRAD.:     3.521 HEAT: -322.8464
 CYCLE:   120 TIME:   0.078 TIME LEFT:  2.00D  GRAD.:     4.919 HEAT: -322.8542
 CYCLE:   121 TIME:   0.078 TIME LEFT:  2.00D  GRAD.:     3.296 HEAT: -322.8641
 CYCLE:   122 TIME:   0.062 TIME LEFT:  2.00D  GRAD.:     3.168 HEAT: -322.8749
 CYCLE:   123 TIME:   0.070 TIME LEFT:  2.00D  GRAD.:     4.339 HEAT: -322.8813
 CYCLE:   124 TIME:   0.078 TIME LEFT:  2.00D  GRAD.:     2.984 HEAT: -322.8875
 CYCLE:   125 TIME:   0.070 TIME LEFT:  2.00D  GRAD.:     2.490 HEAT: -322.8969
 CYCLE:   126 TIME:   0.086 TIME LEFT:  2.00D  GRAD.:     2.770 HEAT: -322.9025
 CYCLE:   127 TIME:   0.133 TIME LEFT:  2.00D  GRAD.:     4.066 HEAT: -322.9082
 CYCLE:   128 TIME:   0.070 TIME LEFT:  2.00D  GRAD.:     2.031 HEAT: -322.9139
 CYCLE:   129 TIME:   0.086 TIME LEFT:  2.00D  GRAD.:     2.303 HEAT: -322.9188
 CYCLE:   130 TIME:   0.078 TIME LEFT:  2.00D  GRAD.:     2.591 HEAT: -322.9241
 CYCLE:   131 TIME:   0.078 TIME LEFT:  2.00D  GRAD.:     5.607 HEAT: -322.9321
 CYCLE:   132 TIME:   0.070 TIME LEFT:  2.00D  GRAD.:     2.580 HEAT: -322.9417
 CYCLE:   133 TIME:   0.078 TIME LEFT:  2.00D  GRAD.:     1.885 HEAT: -322.9467
 CYCLE:   134 TIME:   0.070 TIME LEFT:  2.00D  GRAD.:     2.739 HEAT: -322.9524
 CYCLE:   135 TIME:   0.086 TIME LEFT:  2.00D  GRAD.:     4.794 HEAT: -322.9551
 CYCLE:   136 TIME:   0.070 TIME LEFT:  2.00D  GRAD.:     2.393 HEAT: -322.9595
 CYCLE:   137 TIME:   0.094 TIME LEFT:  2.00D  GRAD.:     1.800 HEAT: -322.9639
 CYCLE:   138 TIME:   0.078 TIME LEFT:  2.00D  GRAD.:     2.056 HEAT: -322.9668
 CYCLE:   139 TIME:   0.133 TIME LEFT:  2.00D  GRAD.:     2.666 HEAT: -322.9733
 CYCLE:   140 TIME:   0.086 TIME LEFT:  2.00D  GRAD.:    10.314 HEAT: -322.9622
 CYCLE:   141 TIME:   0.086 TIME LEFT:  2.00D  GRAD.:     1.261 HEAT: -322.9784
 CYCLE:   142 TIME:   0.070 TIME LEFT:  2.00D  GRAD.:     1.158 HEAT: -322.9792
 CYCLE:   143 TIME:   0.070 TIME LEFT:  2.00D  GRAD.:     1.744 HEAT: -322.9818
 CYCLE:   144 TIME:   0.086 TIME LEFT:  2.00D  GRAD.:     2.950 HEAT: -322.9833
 CYCLE:   145 TIME:   0.078 TIME LEFT:  2.00D  GRAD.:     1.353 HEAT: -322.9853
 CYCLE:   146 TIME:   0.078 TIME LEFT:  2.00D  GRAD.:     1.024 HEAT: -322.9866
 CYCLE:   147 TIME:   0.078 TIME LEFT:  2.00D  GRAD.:     1.201 HEAT: -322.9878
 CYCLE:   148 TIME:   0.094 TIME LEFT:  2.00D  GRAD.:     1.434 HEAT: -322.9898
 CYCLE:   149 TIME:   0.086 TIME LEFT:  2.00D  GRAD.:     4.815 HEAT: -322.9882
 CYCLE:   150 TIME:   0.086 TIME LEFT:  2.00D  GRAD.:     1.096 HEAT: -322.9922
 CYCLE:   151 TIME:   0.070 TIME LEFT:  2.00D  GRAD.:     0.865 HEAT: -322.9928
 CYCLE:   152 TIME:   0.125 TIME LEFT:  2.00D  GRAD.:     1.244 HEAT: -322.9943
 CYCLE:   153 TIME:   0.086 TIME LEFT:  2.00D  GRAD.:     1.689 HEAT: -322.9960
 CYCLE:   154 TIME:   0.078 TIME LEFT:  2.00D  GRAD.:     2.052 HEAT: -322.9976
 CYCLE:   155 TIME:   0.070 TIME LEFT:  2.00D  GRAD.:     1.188 HEAT: -322.9993
 CYCLE:   156 TIME:   0.086 TIME LEFT:  2.00D  GRAD.:     0.982 HEAT: -323.0001
 CYCLE:   157 TIME:   0.094 TIME LEFT:  2.00D  GRAD.:     1.158 HEAT: -323.0010
 CYCLE:   158 TIME:   0.070 TIME LEFT:  2.00D  GRAD.:     1.500 HEAT: -323.0020
 CYCLE:   159 TIME:   0.070 TIME LEFT:  2.00D  GRAD.:     1.091 HEAT: -323.0030
 CYCLE:   160 TIME:   0.094 TIME LEFT:  2.00D  GRAD.:     1.119 HEAT: -323.0044
 CYCLE:   161 TIME:   0.086 TIME LEFT:  2.00D  GRAD.:     1.414 HEAT: -323.0055
 CYCLE:   162 TIME:   0.086 TIME LEFT:  2.00D  GRAD.:     1.264 HEAT: -323.0068
 CYCLE:   163 TIME:   0.086 TIME LEFT:  2.00D  GRAD.:     2.184 HEAT: -323.0077
 CYCLE:   164 TIME:   0.102 TIME LEFT:  2.00D  GRAD.:     0.952 HEAT: -323.0089
 CYCLE:   165 TIME:   0.086 TIME LEFT:  2.00D  GRAD.:     0.927 HEAT: -323.0095
 CYCLE:   166 TIME:   0.070 TIME LEFT:  2.00D  GRAD.:     1.130 HEAT: -323.0106
 CYCLE:   167 TIME:   0.070 TIME LEFT:  2.00D  GRAD.:     1.606 HEAT: -323.0118
 CYCLE:   168 TIME:   0.070 TIME LEFT:  2.00D  GRAD.:     1.008 HEAT: -323.0132
 CYCLE:   169 TIME:   0.070 TIME LEFT:  2.00D  GRAD.:     1.053 HEAT: -323.0143
 CYCLE:   170 TIME:   0.078 TIME LEFT:  2.00D  GRAD.:     1.325 HEAT: -323.0152
 CYCLE:   171 TIME:   0.070 TIME LEFT:  2.00D  GRAD.:     0.884 HEAT: -323.0159
 CYCLE:   172 TIME:   0.070 TIME LEFT:  2.00D  GRAD.:     0.845 HEAT: -323.0167
 CYCLE:   173 TIME:   0.086 TIME LEFT:  2.00D  GRAD.:     1.104 HEAT: -323.0171
 CYCLE:   174 TIME:   0.070 TIME LEFT:  2.00D  GRAD.:     0.778 HEAT: -323.0176
 CYCLE:   175 TIME:   0.070 TIME LEFT:  2.00D  GRAD.:     0.674 HEAT: -323.0182
 CYCLE:   176 TIME:   0.094 TIME LEFT:  2.00D  GRAD.:     1.088 HEAT: -323.0188
 CYCLE:   177 TIME:   0.062 TIME LEFT:  2.00D  GRAD.:     0.849 HEAT: -323.0194
 CYCLE:   178 TIME:   0.117 TIME LEFT:  2.00D  GRAD.:     0.840 HEAT: -323.0200
 CYCLE:   179 TIME:   0.094 TIME LEFT:  2.00D  GRAD.:     1.289 HEAT: -323.0206
 CYCLE:   180 TIME:   0.078 TIME LEFT:  2.00D  GRAD.:     0.877 HEAT: -323.0212
 CYCLE:   181 TIME:   0.078 TIME LEFT:  2.00D  GRAD.:     0.825 HEAT: -323.0219
 CYCLE:   182 TIME:   0.062 TIME LEFT:  2.00D  GRAD.:     0.866 HEAT: -323.0226
 CYCLE:   183 TIME:   0.078 TIME LEFT:  2.00D  GRAD.:     1.455 HEAT: -323.0232
 CYCLE:   184 TIME:   0.078 TIME LEFT:  2.00D  GRAD.:     0.731 HEAT: -323.0239
 CYCLE:   185 TIME:   0.070 TIME LEFT:  2.00D  GRAD.:     0.793 HEAT: -323.0245
 CYCLE:   186 TIME:   0.078 TIME LEFT:  2.00D  GRAD.:     0.995 HEAT: -323.0253
 CYCLE:   187 TIME:   0.070 TIME LEFT:  2.00D  GRAD.:     2.225 HEAT: -323.0255
 CYCLE:   188 TIME:   0.070 TIME LEFT:  2.00D  GRAD.:     0.771 HEAT: -323.0265
 CYCLE:   189 TIME:   0.086 TIME LEFT:  2.00D  GRAD.:     0.647 HEAT: -323.0269
 CYCLE:   190 TIME:   0.070 TIME LEFT:  2.00D  GRAD.:     0.901 HEAT: -323.0274
 CYCLE:   191 TIME:   0.102 TIME LEFT:  2.00D  GRAD.:     1.374 HEAT: -323.0281
 CYCLE:   192 TIME:   0.094 TIME LEFT:  2.00D  GRAD.:     0.948 HEAT: -323.0289
 CYCLE:   193 TIME:   0.078 TIME LEFT:  2.00D  GRAD.:     0.674 HEAT: -323.0295
 CYCLE:   194 TIME:   0.070 TIME LEFT:  2.00D  GRAD.:     0.995 HEAT: -323.0301
 CYCLE:   195 TIME:   0.070 TIME LEFT:  2.00D  GRAD.:     1.526 HEAT: -323.0307
 CYCLE:   196 TIME:   0.078 TIME LEFT:  2.00D  GRAD.:     1.036 HEAT: -323.0313
 CYCLE:   197 TIME:   0.078 TIME LEFT:  2.00D  GRAD.:     0.772 HEAT: -323.0321
 CYCLE:   198 TIME:   0.070 TIME LEFT:  2.00D  GRAD.:     0.939 HEAT: -323.0326
 CYCLE:   199 TIME:   0.086 TIME LEFT:  2.00D  GRAD.:     1.058 HEAT: -323.0336
 CYCLE:   200 TIME:   0.070 TIME LEFT:  2.00D  GRAD.:     2.066 HEAT: -323.0343
 CYCLE:   201 TIME:   0.070 TIME LEFT:  2.00D  GRAD.:     0.909 HEAT: -323.0353
 CYCLE:   202 TIME:   0.086 TIME LEFT:  2.00D  GRAD.:     0.531 HEAT: -323.0357
 CYCLE:   203 TIME:   0.086 TIME LEFT:  2.00D  GRAD.:     0.621 HEAT: -323.0360
 CYCLE:   204 TIME:   0.062 TIME LEFT:  2.00D  GRAD.:     1.062 HEAT: -323.0364
 CYCLE:   205 TIME:   0.109 TIME LEFT:  2.00D  GRAD.:     0.562 HEAT: -323.0367
 CYCLE:   206 TIME:   0.086 TIME LEFT:  2.00D  GRAD.:     0.418 HEAT: -323.0369
 CYCLE:   207 TIME:   0.078 TIME LEFT:  2.00D  GRAD.:     0.567 HEAT: -323.0371
 CYCLE:   208 TIME:   0.078 TIME LEFT:  2.00D  GRAD.:     0.614 HEAT: -323.0373
 CYCLE:   209 TIME:   0.070 TIME LEFT:  2.00D  GRAD.:     0.697 HEAT: -323.0376
 CYCLE:   210 TIME:   0.070 TIME LEFT:  2.00D  GRAD.:     0.704 HEAT: -323.0378
 CYCLE:   211 TIME:   0.070 TIME LEFT:  2.00D  GRAD.:     0.391 HEAT: -323.0379
 CYCLE:   212 TIME:   0.062 TIME LEFT:  2.00D  GRAD.:     0.383 HEAT: -323.0381
 CYCLE:   213 TIME:   0.086 TIME LEFT:  2.00D  GRAD.:     0.673 HEAT: -323.0382
 CYCLE:   214 TIME:   0.078 TIME LEFT:  2.00D  GRAD.:     0.533 HEAT: -323.0384
 CYCLE:   215 TIME:   0.086 TIME LEFT:  2.00D  GRAD.:     0.391 HEAT: -323.0386
 CYCLE:   216 TIME:   0.070 TIME LEFT:  2.00D  GRAD.:     0.406 HEAT: -323.0388
 CYCLE:   217 TIME:   0.070 TIME LEFT:  2.00D  GRAD.:     0.815 HEAT: -323.0389
 CYCLE:   218 TIME:   0.078 TIME LEFT:  2.00D  GRAD.:     0.455 HEAT: -323.0391
 CYCLE:   219 TIME:   0.125 TIME LEFT:  2.00D  GRAD.:     0.335 HEAT: -323.0393
 CYCLE:   220 TIME:   0.070 TIME LEFT:  2.00D  GRAD.:     0.398 HEAT: -323.0394
 CYCLE:   221 TIME:   0.070 TIME LEFT:  2.00D  GRAD.:     0.794 HEAT: -323.0395
 CYCLE:   222 TIME:   0.078 TIME LEFT:  2.00D  GRAD.:     0.353 HEAT: -323.0396
 CYCLE:   223 TIME:   0.070 TIME LEFT:  2.00D  GRAD.:     0.269 HEAT: -323.0397
 CYCLE:   224 TIME:   0.070 TIME LEFT:  2.00D  GRAD.:     0.334 HEAT: -323.0398
 CYCLE:   225 TIME:   0.070 TIME LEFT:  2.00D  GRAD.:     0.545 HEAT: -323.0399
 CYCLE:   226 TIME:   0.078 TIME LEFT:  2.00D  GRAD.:     0.417 HEAT: -323.0400
 CYCLE:   227 TIME:   0.078 TIME LEFT:  2.00D  GRAD.:     0.446 HEAT: -323.0402
 CYCLE:   228 TIME:   0.070 TIME LEFT:  2.00D  GRAD.:     0.698 HEAT: -323.0403
 CYCLE:   229 TIME:   0.078 TIME LEFT:  2.00D  GRAD.:     0.346 HEAT: -323.0404
 CYCLE:   230 TIME:   0.078 TIME LEFT:  2.00D  GRAD.:     0.327 HEAT: -323.0405
 CYCLE:   231 TIME:   0.078 TIME LEFT:  2.00D  GRAD.:     0.390 HEAT: -323.0407
 CYCLE:   232 TIME:   0.109 TIME LEFT:  2.00D  GRAD.:     0.548 HEAT: -323.0408
 CYCLE:   233 TIME:   0.070 TIME LEFT:  2.00D  GRAD.:     0.415 HEAT: -323.0410
 CYCLE:   234 TIME:   0.070 TIME LEFT:  2.00D  GRAD.:     0.251 HEAT: -323.0411
 CYCLE:   235 TIME:   0.086 TIME LEFT:  2.00D  GRAD.:     0.293 HEAT: -323.0412
 CYCLE:   236 TIME:   0.086 TIME LEFT:  2.00D  GRAD.:     0.389 HEAT: -323.0412
 CYCLE:   237 TIME:   0.062 TIME LEFT:  2.00D  GRAD.:     0.256 HEAT: -323.0413
 CYCLE:   238 TIME:   0.070 TIME LEFT:  2.00D  GRAD.:     0.338 HEAT: -323.0414
 CYCLE:   239 TIME:   0.070 TIME LEFT:  2.00D  GRAD.:     0.274 HEAT: -323.0414
 CYCLE:   240 TIME:   0.070 TIME LEFT:  2.00D  GRAD.:     0.276 HEAT: -323.0415
 CYCLE:   241 TIME:   0.070 TIME LEFT:  2.00D  GRAD.:     0.559 HEAT: -323.0416
 CYCLE:   242 TIME:   0.078 TIME LEFT:  2.00D  GRAD.:     0.319 HEAT: -323.0417
 CYCLE:   243 TIME:   0.062 TIME LEFT:  2.00D  GRAD.:     0.283 HEAT: -323.0417
 CYCLE:   244 TIME:   0.070 TIME LEFT:  2.00D  GRAD.:     0.333 HEAT: -323.0418
 CYCLE:   245 TIME:   0.070 TIME LEFT:  2.00D  GRAD.:     0.630 HEAT: -323.0419
 CYCLE:   246 TIME:   0.102 TIME LEFT:  2.00D  GRAD.:     0.326 HEAT: -323.0420
 CYCLE:   247 TIME:   0.086 TIME LEFT:  2.00D  GRAD.:     0.253 HEAT: -323.0421
 CYCLE:   248 TIME:   0.070 TIME LEFT:  2.00D  GRAD.:     0.267 HEAT: -323.0422
 CYCLE:   249 TIME:   0.070 TIME LEFT:  2.00D  GRAD.:     0.917 HEAT: -323.0422
 CYCLE:   250 TIME:   0.070 TIME LEFT:  2.00D  GRAD.:     0.242 HEAT: -323.0423
 CYCLE:   251 TIME:   0.070 TIME LEFT:  2.00D  GRAD.:     0.177 HEAT: -323.0424

 -------------------------------------------------------------------------------
 AUX LARGE CHARGE=0 SINGLET  PM6  OPT PRECISE PRTXYZ
 CN278.pdb
 65


     HERBERTS TEST WAS SATISFIED IN BFGS                      
     SCF FIELD WAS ACHIEVED                                   


                              PM6 CALCULATION
                                                       MOPAC2016 (Version: 20.225L)
                                                       Fri Aug 14 20:41:42 2020
                                                       No. of days remaining = 364




          FINAL HEAT OF FORMATION =       -323.04236 KCAL/MOL =   -1351.60925 KJ/MOL


          TOTAL ENERGY            =      -6818.02237 EV
          ELECTRONIC ENERGY       =     -68375.38587 EV  POINT GROUP:     C1  
          CORE-CORE REPULSION     =      61557.36351 EV
          COSMO AREA              =        445.38 SQUARE ANGSTROMS
          COSMO VOLUME            =        574.49 CUBIC ANGSTROMS

          GRADIENT NORM           =          0.17698 = 0.02195 PER ATOM
          IONIZATION POTENTIAL    =          8.778987 EV
          HOMO LUMO ENERGIES (EV) =         -8.779 -2.198
          NO. OF FILLED LEVELS    =        101
          MOLECULAR WEIGHT        =        534.5184

          MOLECULAR DIMENSIONS (Angstroms)

            Atom       Atom       Distance
            H    64    H    45    12.35891
            H    42    H    62    11.27035
            H    65    H    53     5.79799


          SCF CALCULATIONS        =        252
 
          WALL-CLOCK TIME         =         20.250 SECONDS
          COMPUTATION TIME        =         38.578 SECONDS




   ATOM   CHEMICAL          X               Y               Z
  NUMBER   SYMBOL      (ANGSTROMS)     (ANGSTROMS)     (ANGSTROMS)
 
     1       C         -3.14765236  *   2.88543751  *  -0.49937552  *
     2       C         -3.18001768  *   1.51124702  *  -0.28107890  *
     3       C         -2.01451599  *   0.71910953  *  -0.03742593  *
     4       C         -0.78242402  *   1.42650209  *  -0.05324069  *
     5       C         -0.70956910  *   2.80752244  *  -0.38262939  *
     6       C         -1.90033972  *   3.53013872  *  -0.54949862  *
     7       C         -1.99283122  *  -0.70220120  *   0.26826410  *
     8       C         -0.74104234  *  -1.36200488  *   0.35011712  *
     9       C          0.49662060  *  -0.64248451  *   0.05213129  *
    10       C          0.48484596  *   0.72649810  *   0.17140980  *
    11       C         -3.12731781  *  -1.51146746  *   0.58649704  *
    12       C         -3.04149977  *  -2.80931998  *   1.07160847  *
    13       C         -1.76604175  *  -3.38572125  *   1.22774805  *
    14       C         -0.61057748  *  -2.68926609  *   0.84448867  *
    15       C          0.72383759  *  -3.29984669  *   1.02891524  *
    16       C          1.78528348  *  -2.70222529  *   0.14211052  *
    17       C          1.67124830  *  -1.43829091  *  -0.34549130  *
    18       C          1.66400443  *   1.52501170  *   0.54885743  *
    19       C          1.72679927  *   2.82175446  *   0.14362403  *
    20       C          0.59535830  *   3.45969130  *  -0.61923925  *
    21       O         -4.48168785  *   1.06873452  *  -0.30134100  *
    22       O         -4.44133546  *  -1.10618753  *   0.46643237  *
    23       O          0.75140540  *   4.41257070  *  -1.34940456  *
    24       O          0.94929132  *  -4.20281673  *   1.80310325  *
    25       O          2.84577686  *   3.53499131  *   0.48822366  *
    26       C          2.91257494  *   4.94388283  *   0.13026688  *
    27       O          2.89402026  *  -3.42281208  *  -0.22966942  *
    28       C          3.03164797  *  -4.78936116  *   0.24987400  *
    29       C          2.54986507  *  -0.84384718  *  -1.40448928  *
    30       C          4.02651416  *  -1.28876785  *  -1.40489934  *
    31       C          4.95297498  *  -0.21106998  *  -1.95429045  *
    32       O          4.19370643  *  -2.39243086  *  -2.31657901  *
    33       C          2.63085799  *   0.91829119  *   1.52242026  *
    34       C          4.12961513  *   1.11072752  *   1.20896790  *
    35       C          4.97287214  *  -0.08121134  *   1.64692069  *
    36       O          4.65425147  *   2.19791309  *   1.99767935  *
    37       C         -4.76965972  *  -0.28163067  *  -0.64789560  *
    38       O         -1.79581606  *   4.86616902  *  -0.75834275  *
    39       O         -1.60650762  *  -4.64324351  *   1.70803865  *
    40       H         -4.08082773  *   3.42732991  *  -0.64081393  *
    41       H         -3.95095093  *  -3.35271163  *   1.32001310  *
    42       H          3.89616510  *   5.22093513  *   0.52784696  *
    43       H          2.10493539  *   5.49791799  *   0.61524076  *
    44       H          2.86923262  *   5.05847900  *  -0.96031959  *
    45       H          3.98903592  *  -5.07816751  *  -0.20054561  *
    46       H          2.20550813  *  -5.40614062  *  -0.11231151  *
    47       H          3.07888139  *  -4.80183657  *   1.34598774  *
    48       H          2.11332241  *  -1.10926103  *  -2.39791509  *
    49       H          2.50825815  *   0.26544001  *  -1.37293130  *
    50       H          4.34852055  *  -1.62419661  *  -0.38506669  *
    51       H          5.98015976  *  -0.59302986  *  -2.03052437  *
    52       H          4.96413040  *   0.68080151  *  -1.31082386  *
    53       H          4.66280109  *   0.09124515  *  -2.96812942  *
    54       H          3.64947017  *  -3.15907196  *  -2.02663932  *
    55       H          2.43173886  *   1.36633206  *   2.52628721  *
    56       H          2.42526861  *  -0.16298538  *   1.66443138  *
    57       H          4.29406571  *   1.35864674  *   0.13155006  *
    58       H          6.04187102  *   0.15122431  *   1.54342740  *
    59       H          4.75641155  *  -0.97938177  *   1.04770581  *
    60       H          4.81359432  *  -0.32050014  *   2.70548308  *
    61       H          4.13954250  *   3.01991495  *   1.84157053  *
    62       H         -5.87821110  *  -0.30430761  *  -0.67475915  *
    63       H         -4.24950307  *  -0.59012770  *  -1.56668787  *
    64       H         -2.68074293  *   5.30314771  *  -0.89690522  *
    65       H         -2.46921401  *  -5.06068195  *   1.98302114  *

                             CARTESIAN COORDINATES

   1    C       -3.147652359     2.885437515    -0.499375521
   2    C       -3.180017679     1.511247019    -0.281078901
   3    C       -2.014515988     0.719109530    -0.037425925
   4    C       -0.782424019     1.426502092    -0.053240689
   5    C       -0.709569102     2.807522441    -0.382629390
   6    C       -1.900339716     3.530138723    -0.549498618
   7    C       -1.992831216    -0.702201203     0.268264103
   8    C       -0.741042342    -1.362004881     0.350117117
   9    C        0.496620597    -0.642484507     0.052131287
  10    C        0.484845958     0.726498095     0.171409796
  11    C       -3.127317807    -1.511467459     0.586497039
  12    C       -3.041499773    -2.809319979     1.071608474
  13    C       -1.766041749    -3.385721250     1.227748047
  14    C       -0.610577480    -2.689266089     0.844488673
  15    C        0.723837592    -3.299846686     1.028915245
  16    C        1.785283481    -2.702225287     0.142110520
  17    C        1.671248298    -1.438290910    -0.345491297
  18    C        1.664004431     1.525011703     0.548857434
  19    C        1.726799275     2.821754456     0.143624029
  20    C        0.595358302     3.459691297    -0.619239249
  21    O       -4.481687850     1.068734517    -0.301341000
  22    O       -4.441335461    -1.106187531     0.466432372
  23    O        0.751405398     4.412570700    -1.349404559
  24    O        0.949291323    -4.202816729     1.803103250
  25    O        2.845776864     3.534991314     0.488223655
  26    C        2.912574941     4.943882830     0.130266879
  27    O        2.894020256    -3.422812079    -0.229669421
  28    C        3.031647969    -4.789361160     0.249873996
  29    C        2.549865075    -0.843847182    -1.404489275
  30    C        4.026514155    -1.288767848    -1.404899336
  31    C        4.952974981    -0.211069984    -1.954290448
  32    O        4.193706429    -2.392430862    -2.316579014
  33    C        2.630857986     0.918291190     1.522420259
  34    C        4.129615133     1.110727515     1.208967905
  35    C        4.972872140    -0.081211341     1.646920692
  36    O        4.654251469     2.197913085     1.997679355
  37    C       -4.769659722    -0.281630672    -0.647895603
  38    O       -1.795816055     4.866169020    -0.758342755
  39    O       -1.606507623    -4.643243512     1.708038645
  40    H       -4.080827733     3.427329907    -0.640813926
  41    H       -3.950950935    -3.352711628     1.320013100
  42    H        3.896165096     5.220935125     0.527846956
  43    H        2.104935386     5.497917992     0.615240758
  44    H        2.869232620     5.058479000    -0.960319591
  45    H        3.989035923    -5.078167512    -0.200545610
  46    H        2.205508128    -5.406140622    -0.112311512
  47    H        3.078881392    -4.801836571     1.345987736
  48    H        2.113322413    -1.109261026    -2.397915090
  49    H        2.508258150     0.265440014    -1.372931300
  50    H        4.348520546    -1.624196612    -0.385066686
  51    H        5.980159755    -0.593029864    -2.030524366
  52    H        4.964130400     0.680801508    -1.310823860
  53    H        4.662801094     0.091245154    -2.968129419
  54    H        3.649470173    -3.159071964    -2.026639317
  55    H        2.431738862     1.366332062     2.526287208
  56    H        2.425268610    -0.162985385     1.664431377
  57    H        4.294065710     1.358646741     0.131550061
  58    H        6.041871023     0.151224313     1.543427399
  59    H        4.756411552    -0.979381773     1.047705808
  60    H        4.813594320    -0.320500140     2.705483077
  61    H        4.139542495     3.019914954     1.841570528
  62    H       -5.878211098    -0.304307613    -0.674759152
  63    H       -4.249503074    -0.590127703    -1.566687866
  64    H       -2.680742929     5.303147710    -0.896905218
  65    H       -2.469214009    -5.060681954     1.983021136


           Empirical Formula: C29 H26 O10  =    65 atoms



      MOLECULAR POINT GROUP   :   C1  


                  EIGENVALUES  
 -32.44031 -32.32066 -32.29426 -31.94791 -31.92955 -31.42632 -31.35909 -30.84175
 -30.79256 -30.68499 -30.20677 -29.58950 -29.51296 -29.05098 -28.53045 -27.91812
 -27.15282 -27.02854 -26.62566 -26.31780 -26.02914 -25.92478 -25.14729 -25.06213
 -24.77346 -24.47426 -23.43396 -23.02879 -22.61420 -22.33974 -21.89970 -21.67674
 -21.00516 -20.48359 -20.02506 -19.89351 -19.65782 -19.48853 -18.85212 -18.39394
 -18.22661 -18.13971 -17.86277 -17.75034 -17.16750 -17.07742 -16.95580 -16.84473
 -16.69276 -16.49924 -16.44037 -16.20008 -16.15114 -15.84347 -15.75969 -15.50855
 -15.37316 -15.23145 -15.11685 -15.09743 -14.93223 -14.83212 -14.78747 -14.73201
 -14.66496 -14.52306 -14.41442 -14.31947 -14.22710 -14.05391 -13.93147 -13.74368
 -13.63195 -13.47484 -13.39865 -13.33358 -13.25703 -13.19926 -13.15458 -13.10097
 -13.06644 -12.86850 -12.73062 -12.59594 -12.52273 -12.27616 -12.21629 -12.01515
 -11.64829 -11.56540 -11.45212 -10.71847 -10.66306 -10.41758 -10.37889 -10.18475
 -10.12960  -9.94122  -9.47285  -9.11127  -8.77899  -2.19812  -1.13816  -0.78212
  -0.51354  -0.41706  -0.22700   0.42592   0.55021   0.59144   0.86777   1.03442
   1.11859   1.21502   1.42358   1.49292   1.54977   1.96089   2.23800   2.25882
   2.28314   2.38996   2.55720   2.78061   2.93107   3.01558   3.10871   3.17512
   3.18245   3.19104   3.26031   3.36077   3.40852   3.48219   3.50993   3.61961
   3.63515   3.72133   3.73856   3.75685   3.76628   3.87404   3.92504   3.98106
   4.01687   4.06439   4.14790   4.16845   4.29865   4.32139   4.38221   4.45103
   4.48570   4.50119   4.60628   4.62069   4.69750   4.71794   4.82417   5.04159
   5.19011   5.20627   5.22108   5.27024   5.28644   5.32324   5.33165   5.38185
   5.50500   5.55371   5.68390   5.69967   5.95911   5.97411   6.09997   6.18242
   6.26338   6.31746   6.36280   6.40294   6.98522   7.09768


              NET ATOMIC CHARGES AND DIPOLE CONTRIBUTIONS

  ATOM NO.   TYPE          CHARGE      No. of ELECS.   s-Pop       p-Pop       
    1          C          -0.530733        4.5307     1.10981     3.42092
    2          C           0.436233        3.5638     1.08685     2.47691
    3          C          -0.204505        4.2045     1.08072     3.12378
    4          C           0.202574        3.7974     1.08570     2.71172
    5          C          -0.445911        4.4459     1.09964     3.34627
    6          C           0.491651        3.5083     1.07103     2.43732
    7          C          -0.202267        4.2023     1.08119     3.12108
    8          C           0.196363        3.8036     1.08553     2.71810
    9          C          -0.025979        4.0260     1.09763     2.92835
   10          C          -0.016638        4.0166     1.09754     2.91909
   11          C           0.422025        3.5780     1.08685     2.49112
   12          C          -0.520934        4.5209     1.11145     3.40949
   13          C           0.483684        3.5163     1.07235     2.44397
   14          C          -0.437465        4.4375     1.10079     3.33668
   15          C           0.551811        3.4482     1.09109     2.35710
   16          C           0.039336        3.9607     1.12155     2.83911
   17          C          -0.033223        4.0332     1.08630     2.94692
   18          C          -0.049553        4.0496     1.08582     2.96373
   19          C           0.053619        3.9464     1.12256     2.82382
   20          C           0.552660        3.4473     1.09110     2.35624
   21          O          -0.399210        6.3992     1.83195     4.56726
   22          O          -0.399505        6.3995     1.83615     4.56335
   23          O          -0.454815        6.4548     1.85299     4.60182
   24          O          -0.453912        6.4539     1.85299     4.60092
   25          O          -0.360457        6.3605     1.83546     4.52500
   26          C          -0.183798        4.1838     1.11007     3.07372
   27          O          -0.361817        6.3618     1.83774     4.52408
   28          C          -0.184538        4.1845     1.10980     3.07474
   29          C          -0.369773        4.3698     1.09975     3.27002
   30          C           0.261417        3.7386     1.09120     2.64738
   31          C          -0.533188        4.5332     1.09332     3.43987
   32          O          -0.591257        6.5913     1.82368     4.76757
   33          C          -0.365954        4.3660     1.09946     3.26649
   34          C           0.264790        3.7352     1.09101     2.64420
   35          C          -0.534465        4.5345     1.09414     3.44033
   36          O          -0.593203        6.5932     1.82290     4.77030
   37          C           0.201623        3.7984     1.12807     2.67031
   38          O          -0.416694        6.4167     1.80572     4.61097
   39          O          -0.410097        6.4101     1.80639     4.60370
   40          H           0.209730        0.7903     0.79027
   41          H           0.208796        0.7912     0.79120
   42          H           0.155910        0.8441     0.84409
   43          H           0.146023        0.8540     0.85398
   44          H           0.167307        0.8327     0.83269
   45          H           0.156806        0.8432     0.84319
   46          H           0.144972        0.8550     0.85503
   47          H           0.166492        0.8335     0.83351
   48          H           0.180759        0.8192     0.81924
   49          H           0.174530        0.8255     0.82547
   50          H           0.112994        0.8870     0.88701
   51          H           0.175091        0.8249     0.82491
   52          H           0.163190        0.8368     0.83681
   53          H           0.171642        0.8284     0.82836
   54          H           0.322170        0.6778     0.67783
   55          H           0.180535        0.8195     0.81946
   56          H           0.172411        0.8276     0.82759
   57          H           0.106702        0.8933     0.89330
   58          H           0.175498        0.8245     0.82450
   59          H           0.164698        0.8353     0.83530
   60          H           0.171616        0.8284     0.82838
   61          H           0.322350        0.6777     0.67765
   62          H           0.176202        0.8238     0.82380
   63          H           0.133997        0.8660     0.86600
   64          H           0.331585        0.6684     0.66842
   65          H           0.330098        0.6699     0.66990
 DIPOLE           X         Y         Z       TOTAL
 POINT-CHG.    -6.327    -0.707    -1.599     6.564
 HYBRID        -1.513     0.152     0.459     1.588
 SUM           -7.839    -0.555    -1.141     7.941


          ATOMIC ORBITAL ELECTRON POPULATIONS

     Atom    s        px        py        pz   
    1  C   1.10981   1.09206   1.04810   1.28076
    2  C   1.08685   0.77603   0.89295   0.80794
    3  C   1.08072   0.98339   0.96717   1.17322
    4  C   1.08570   0.93039   0.91289   0.86844
    5  C   1.09964   1.03173   1.02918   1.28535
    6  C   1.07103   0.90908   0.75923   0.76901
    7  C   1.08119   0.98340   0.97029   1.16739
    8  C   1.08553   0.93133   0.91214   0.87464
    9  C   1.09763   0.97071   0.96813   0.98951
   10  C   1.09754   0.96719   0.96550   0.98641
   11  C   1.08685   0.77500   0.87971   0.83642
   12  C   1.11145   1.08666   1.06425   1.25857
   13  C   1.07235   0.90733   0.76403   0.77262
   14  C   1.10079   1.03428   1.05250   1.24989
   15  C   1.09109   0.85698   0.75257   0.74755
   16  C   1.12155   0.89327   0.93376   1.01208
   17  C   1.08630   0.98593   0.95108   1.00991
   18  C   1.08582   0.98843   0.94999   1.02532
   19  C   1.12256   0.88721   0.93301   1.00360
   20  C   1.09110   0.86307   0.76234   0.73083
   21  O   1.83195   1.36258   1.38861   1.81607
   22  O   1.83615   1.35884   1.67721   1.52730
   23  O   1.85299   1.84806   1.35362   1.40014
   24  O   1.85299   1.82930   1.36233   1.40930
   25  O   1.83546   1.43985   1.31391   1.77124
   26  C   1.11007   1.14307   0.77566   1.15500
   27  O   1.83774   1.45914   1.34066   1.72427
   28  C   1.10980   1.13731   0.79731   1.14013
   29  C   1.09975   1.04825   1.14465   1.07711
   30  C   1.09120   0.89324   0.81854   0.93560
   31  C   1.09332   1.15012   1.11428   1.17546
   32  O   1.82368   1.76681   1.37443   1.62633
   33  C   1.09946   1.02832   1.15483   1.08333
   34  C   1.09101   0.86733   0.81621   0.96067
   35  C   1.09414   1.15825   1.09736   1.18472
   36  O   1.82290   1.67563   1.34301   1.75166
   37  C   1.12807   1.06939   0.71815   0.88276
   38  O   1.80572   1.47373   1.30382   1.83343
   39  O   1.80639   1.47921   1.36219   1.76231
   40  H   0.79027
   41  H   0.79120
   42  H   0.84409
   43  H   0.85398
   44  H   0.83269
   45  H   0.84319
   46  H   0.85503
   47  H   0.83351
   48  H   0.81924
   49  H   0.82547
   50  H   0.88701
   51  H   0.82491
   52  H   0.83681
   53  H   0.82836
   54  H   0.67783
   55  H   0.81946
   56  H   0.82759
   57  H   0.89330
   58  H   0.82450
   59  H   0.83530
   60  H   0.82838
   61  H   0.67765
   62  H   0.82380
   63  H   0.86600
   64  H   0.66842
   65  H   0.66990

 **********************
 *                    *
 * JOB ENDED NORMALLY *
 *                    *
 **********************



 TOTAL JOB TIME:            20.39 SECONDS

 == MOPAC DONE ==
