 *******************************************************************************
 ** Site#: 35412        For non-commercial use only    Version 20.225L 64BITS **
 *******************************************************************************
 ** Cite this program as: MOPAC2016, Version: 20.225L, James J. P. Stewart,   **
 ** Stewart Computational Chemistry, web: HTTP://OpenMOPAC.net. Days left: 364**
 *******************************************************************************
 **                                                                           **
 **                                MOPAC2016                                  **
 **                                                                           **
 *******************************************************************************

                              PM6 CALCULATION RESULTS

 *******************************************************************************
 *  CALCULATION DONE:                                Fri Aug 14 20:40:40 2020  *
 *  PM6        - The PM6 Hamiltonian to be used
 *  SINGLET    - SPIN STATE DEFINED AS A SINGLET
 *  OPT        - OPTIMIZE COORDINATES OF ALL ATOMS
 *
 *
 *
 *                 CHARGE ON SYSTEM = 0
 *
 *
 *
 *  PRECISE    - CRITERIA TO BE INCREASED BY 100 TIMES
 *  T=         - A TIME OF 172800.0 SECONDS REQUESTED
 *  DUMP=N     - RESTART FILE WRITTEN EVERY 7200.0 SECONDS REQUESTED
 *  AUX        - OUTPUT AUXILIARY INFORMATION
 *  PRTXYZ     - PRINT CARTESIAN COORDINATES
 *  LARGE      - EXPANDED OUTPUT TO BE PRINTED
 *******************************************************************************
 AUX LARGE CHARGE=0 SINGLET  PM6  OPT PRECISE PRTXYZ
 CN275.pdb
 65
   ATOM   CHEMICAL          X               Y               Z
  NUMBER   SYMBOL      (ANGSTROMS)     (ANGSTROMS)     (ANGSTROMS)
 
     1       C         -3.08000000  *   2.76900000  *   0.71200000  *
     2       C         -3.08600000  *   1.44100000  *   0.39300000  *
     3       C         -1.90700000  *   0.68800000  *   0.22200000  *
     4       C         -0.67400000  *   1.36200000  *   0.32400000  *
     5       C         -0.70800000  *   2.74200000  *   0.64300000  *
     6       C         -1.90800000  *   3.42800000  *   0.84700000  *
     7       C         -1.92300000  *  -0.69500000  *   0.00100000  *
     8       C         -0.70500000  *  -1.40500000  *  -0.05400000  *
     9       C          0.55100000  *  -0.75100000  *   0.06300000  *
    10       C          0.56500000  *   0.69100000  *   0.15000000  *
    11       C         -3.12100000  *  -1.42900000  *  -0.09500000  *
    12       C         -3.15200000  *  -2.78700000  *  -0.22600000  *
    13       C         -1.99700000  *  -3.48400000  *  -0.31900000  *
    14       C         -0.77700000  *  -2.80600000  *  -0.24300000  *
    15       C          0.39400000  *  -3.63400000  *  -0.40400000  *
    16       C          1.74400000  *  -3.10100000  *  -0.12200000  *
    17       C          1.88100000  *  -1.79800000  *   0.15500000  *
    18       C          1.89100000  *   1.72100000  *   0.05200000  *
    19       C          1.79800000  *   2.99300000  *   0.44000000  *
    20       C          0.48900000  *   3.52400000  *   0.85000000  *
    21       O         -4.32900000  *   1.12700000  *   0.26500000  *
    22       O         -4.35500000  *  -1.05600000  *  -0.13000000  *
    23       O          0.38000000  *   4.67200000  *   1.30400000  *
    24       O          0.23600000  *  -4.81700000  *  -0.73600000  *
    25       O          3.04500000  *   3.77800000  *   0.41200000  *
    26       C          2.97400000  *   5.18400000  *   0.82000000  *
    27       O          2.97200000  *  -3.92900000  *  -0.12000000  *
    28       C          2.84100000  *  -5.35900000  *  -0.43100000  *
    29       C          3.35300000  *  -1.41700000  *   0.65200000  *
    30       C          4.11200000  *  -2.24200000  *   1.77500000  *
    31       C          5.53700000  *  -1.64200000  *   1.88200000  *
    32       O          3.48900000  *  -2.13000000  *   3.07600000  *
    33       C          3.32400000  *   1.41600000  *  -0.60900000  *
    34       C          3.82800000  *   2.30300000  *  -1.83100000  *
    35       C          5.27800000  *   1.85800000  *  -2.14500000  *
    36       O          3.03700000  *   2.12600000  *  -3.03500000  *
    37       C         -4.66900000  *   0.13700000  *  -0.48500000  *
    38       O         -2.00600000  *   4.77800000  *   1.17200000  *
    39       O         -2.13600000  *  -4.85800000  *  -0.49500000  *
    40       H         -4.00000000  *   3.28700000  *   0.83800000  *
    41       H         -4.08500000  *  -3.29200000  *  -0.29500000  *
    42       H          3.96900000  *   5.63900000  *   0.72900000  *
    43       H          2.63300000  *   5.24900000  *   1.86000000  *
    44       H          2.26700000  *   5.72700000  *   0.17100000  *
    45       H          3.82900000  *  -5.83800000  *  -0.38700000  *
    46       H          2.42300000  *  -5.47400000  *  -1.43600000  *
    47       H          2.17100000  *  -5.84100000  *   0.29900000  *
    48       H          3.98300000  *  -1.50200000  *  -0.24300000  *
    49       H          3.34300000  *  -0.41200000  *   1.00800000  *
    50       H          4.18700000  *  -3.29700000  *   1.47400000  *
    51       H          6.12500000  *  -2.19100000  *   2.63400000  *
    52       H          5.46600000  *  -0.58300000  *   2.17400000  *
    53       H          6.03900000  *  -1.71500000  *   0.90200000  *
    54       H          3.52400000  *  -1.16700000  *   3.40500000  *
    55       H          4.06100000  *   1.58500000  *   0.19100000  *
    56       H          3.36100000  *   0.41100000  *  -0.95900000  *
    57       H          3.83200000  *   3.36200000  *  -1.53600000  *
    58       H          5.68700000  *   2.45900000  *  -2.97200000  *
    59       H          5.28300000  *   0.79400000  *  -2.42700000  *
    60       H          5.90400000  *   1.99800000  *  -1.24700000  *
    61       H          3.12500000  *   1.18600000  *  -3.39200000  *
    62       H         -5.78000000  *   0.15900000  *  -0.54200000  *
    63       H         -4.26800000  *   0.31400000  *  -1.49400000  *
    64       H         -2.95600000  *   5.11300000  *   1.29200000  *
    65       H         -3.09700000  *  -5.18500000  *  -0.51300000  *
 


          CARTESIAN COORDINATES 

    NO.       ATOM           X           Y           Z

     1         C         -3.0800      2.7690      0.7120
     2         C         -3.0860      1.4410      0.3930
     3         C         -1.9070      0.6880      0.2220
     4         C         -0.6740      1.3620      0.3240
     5         C         -0.7080      2.7420      0.6430
     6         C         -1.9080      3.4280      0.8470
     7         C         -1.9230     -0.6950      0.0010
     8         C         -0.7050     -1.4050     -0.0540
     9         C          0.5510     -0.7510      0.0630
    10         C          0.5650      0.6910      0.1500
    11         C         -3.1210     -1.4290     -0.0950
    12         C         -3.1520     -2.7870     -0.2260
    13         C         -1.9970     -3.4840     -0.3190
    14         C         -0.7770     -2.8060     -0.2430
    15         C          0.3940     -3.6340     -0.4040
    16         C          1.7440     -3.1010     -0.1220
    17         C          1.8810     -1.7980      0.1550
    18         C          1.8910      1.7210      0.0520
    19         C          1.7980      2.9930      0.4400
    20         C          0.4890      3.5240      0.8500
    21         O         -4.3290      1.1270      0.2650
    22         O         -4.3550     -1.0560     -0.1300
    23         O          0.3800      4.6720      1.3040
    24         O          0.2360     -4.8170     -0.7360
    25         O          3.0450      3.7780      0.4120
    26         C          2.9740      5.1840      0.8200
    27         O          2.9720     -3.9290     -0.1200
    28         C          2.8410     -5.3590     -0.4310
    29         C          3.3530     -1.4170      0.6520
    30         C          4.1120     -2.2420      1.7750
    31         C          5.5370     -1.6420      1.8820
    32         O          3.4890     -2.1300      3.0760
    33         C          3.3240      1.4160     -0.6090
    34         C          3.8280      2.3030     -1.8310
    35         C          5.2780      1.8580     -2.1450
    36         O          3.0370      2.1260     -3.0350
    37         C         -4.6690      0.1370     -0.4850
    38         O         -2.0060      4.7780      1.1720
    39         O         -2.1360     -4.8580     -0.4950
    40         H         -4.0000      3.2870      0.8380
    41         H         -4.0850     -3.2920     -0.2950
    42         H          3.9690      5.6390      0.7290
    43         H          2.6330      5.2490      1.8600
    44         H          2.2670      5.7270      0.1710
    45         H          3.8290     -5.8380     -0.3870
    46         H          2.4230     -5.4740     -1.4360
    47         H          2.1710     -5.8410      0.2990
    48         H          3.9830     -1.5020     -0.2430
    49         H          3.3430     -0.4120      1.0080
    50         H          4.1870     -3.2970      1.4740
    51         H          6.1250     -2.1910      2.6340
    52         H          5.4660     -0.5830      2.1740
    53         H          6.0390     -1.7150      0.9020
    54         H          3.5240     -1.1670      3.4050
    55         H          4.0610      1.5850      0.1910
    56         H          3.3610      0.4110     -0.9590
    57         H          3.8320      3.3620     -1.5360
    58         H          5.6870      2.4590     -2.9720
    59         H          5.2830      0.7940     -2.4270
    60         H          5.9040      1.9980     -1.2470
    61         H          3.1250      1.1860     -3.3920
    62         H         -5.7800      0.1590     -0.5420
    63         H         -4.2680      0.3140     -1.4940
    64         H         -2.9560      5.1130      1.2920
    65         H         -3.0970     -5.1850     -0.5130

 General Reference for PM6:
 "Optimization of Parameters for Semiempirical Methods V: Modification of NDDO Approximations
 and Application to 70 Elements", J. J. P. Stewart, J. Mol. Mod., 13, 1173-1213 (2007)
 URL: https://link.springer.com/article/10.1007/s00894-007-0233-4

           Empirical Formula: C29 H26 O10  =    65 atoms



      MOLECULAR POINT GROUP   :   C1  


 SINGLET STATE CALCULATION


      RHF CALCULATION, NO. OF DOUBLY OCCUPIED LEVELS = 101


          Geometry optimization using L-BFGS
 CYCLE:     1 TIME:   0.133 TIME LEFT:  2.00D  GRAD.:   412.015 HEAT: -181.1761
 CYCLE:     2 TIME:   0.078 TIME LEFT:  2.00D  GRAD.:   404.795 HEAT: -182.8589
 CYCLE:     3 TIME:   0.086 TIME LEFT:  2.00D  GRAD.:   137.070 HEAT: -250.6748
 CYCLE:     4 TIME:   0.094 TIME LEFT:  2.00D  GRAD.:   404.930 HEAT: -182.8599
 CYCLE:     5 TIME:   0.086 TIME LEFT:  2.00D  GRAD.:   137.159 HEAT: -250.6744
 CYCLE:     6 TIME:   0.078 TIME LEFT:  2.00D  GRAD.:   106.840 HEAT: -263.1961
 CYCLE:     7 TIME:   0.164 TIME LEFT:  2.00D  GRAD.:   155.316 HEAT: -270.5019
 CYCLE:     8 TIME:   0.102 TIME LEFT:  2.00D  GRAD.:    90.120 HEAT: -275.7284
 CYCLE:     9 TIME:   0.086 TIME LEFT:  2.00D  GRAD.:    58.528 HEAT: -277.9373
 CYCLE:    10 TIME:   0.078 TIME LEFT:  2.00D  GRAD.:    47.362 HEAT: -281.0601
 CYCLE:    11 TIME:   0.070 TIME LEFT:  2.00D  GRAD.:    61.528 HEAT: -284.0216
 CYCLE:    12 TIME:   0.078 TIME LEFT:  2.00D  GRAD.:    81.197 HEAT: -286.4092
 CYCLE:    13 TIME:   0.078 TIME LEFT:  2.00D  GRAD.:    39.657 HEAT: -288.7151
 CYCLE:    14 TIME:   0.070 TIME LEFT:  2.00D  GRAD.:    39.720 HEAT: -290.3599
 CYCLE:    15 TIME:   0.086 TIME LEFT:  2.00D  GRAD.:    50.179 HEAT: -292.2625
 CYCLE:    16 TIME:   0.086 TIME LEFT:  2.00D  GRAD.:   119.335 HEAT: -293.1889
 CYCLE:    17 TIME:   0.070 TIME LEFT:  2.00D  GRAD.:    41.775 HEAT: -295.7940
 CYCLE:    18 TIME:   0.086 TIME LEFT:  2.00D  GRAD.:    34.822 HEAT: -296.8497
 CYCLE:    19 TIME:   0.133 TIME LEFT:  2.00D  GRAD.:    40.495 HEAT: -298.2515
 CYCLE:    20 TIME:   0.086 TIME LEFT:  2.00D  GRAD.:    42.384 HEAT: -300.2526
 CYCLE:    21 TIME:   0.078 TIME LEFT:  2.00D  GRAD.:   105.909 HEAT: -300.6802
 CYCLE:    22 TIME:   0.078 TIME LEFT:  2.00D  GRAD.:    35.900 HEAT: -303.1510
 CYCLE:    23 TIME:   0.086 TIME LEFT:  2.00D  GRAD.:    23.190 HEAT: -303.7794
 CYCLE:    24 TIME:   0.078 TIME LEFT:  2.00D  GRAD.:    25.926 HEAT: -304.5595
 CYCLE:    25 TIME:   0.070 TIME LEFT:  2.00D  GRAD.:    37.500 HEAT: -305.4404
 CYCLE:    26 TIME:   0.070 TIME LEFT:  2.00D  GRAD.:    55.602 HEAT: -306.7492
 CYCLE:    27 TIME:   0.086 TIME LEFT:  2.00D  GRAD.:    36.473 HEAT: -308.1207
 CYCLE:    28 TIME:   0.070 TIME LEFT:  2.00D  GRAD.:    33.915 HEAT: -309.1441
 CYCLE:    29 TIME:   0.078 TIME LEFT:  2.00D  GRAD.:    40.686 HEAT: -310.6728
 CYCLE:    30 TIME:   0.078 TIME LEFT:  2.00D  GRAD.:    71.560 HEAT: -311.6749
 CYCLE:    31 TIME:   0.070 TIME LEFT:  2.00D  GRAD.:    33.380 HEAT: -313.1782
 CYCLE:    32 TIME:   0.133 TIME LEFT:  2.00D  GRAD.:    28.356 HEAT: -314.1850
 CYCLE:    33 TIME:   0.070 TIME LEFT:  2.00D  GRAD.:    28.786 HEAT: -314.9490
 CYCLE:    34 TIME:   0.070 TIME LEFT:  2.00D  GRAD.:    98.131 HEAT: -314.5655
 CYCLE:    35 TIME:   0.086 TIME LEFT:  2.00D  GRAD.:    21.410 HEAT: -315.9541
 CYCLE:    36 TIME:   0.070 TIME LEFT:  2.00D  GRAD.:    15.623 HEAT: -316.1502
 CYCLE:    37 TIME:   0.078 TIME LEFT:  2.00D  GRAD.:    20.295 HEAT: -316.5072
 CYCLE:    38 TIME:   0.070 TIME LEFT:  2.00D  GRAD.:    21.845 HEAT: -316.8295
 CYCLE:    39 TIME:   0.078 TIME LEFT:  2.00D  GRAD.:    25.683 HEAT: -317.0654
 CYCLE:    40 TIME:   0.078 TIME LEFT:  2.00D  GRAD.:    12.791 HEAT: -317.2500
 CYCLE:    41 TIME:   0.070 TIME LEFT:  2.00D  GRAD.:    14.474 HEAT: -317.3997
 CYCLE:    42 TIME:   0.078 TIME LEFT:  2.00D  GRAD.:    19.439 HEAT: -317.6013
 CYCLE:    43 TIME:   0.070 TIME LEFT:  2.00D  GRAD.:    32.609 HEAT: -317.9810
 CYCLE:    44 TIME:   0.078 TIME LEFT:  2.00D  GRAD.:    27.191 HEAT: -318.3646
 CYCLE:    45 TIME:   0.078 TIME LEFT:  2.00D  GRAD.:    16.231 HEAT: -318.6874
 CYCLE:    46 TIME:   0.141 TIME LEFT:  2.00D  GRAD.:    17.609 HEAT: -319.0491
 CYCLE:    47 TIME:   0.070 TIME LEFT:  2.00D  GRAD.:    21.374 HEAT: -319.2440
 CYCLE:    48 TIME:   0.070 TIME LEFT:  2.00D  GRAD.:    16.695 HEAT: -319.5581
 CYCLE:    49 TIME:   0.070 TIME LEFT:  2.00D  GRAD.:    23.855 HEAT: -319.8906
 CYCLE:    50 TIME:   0.078 TIME LEFT:  2.00D  GRAD.:    23.161 HEAT: -320.1195
 CYCLE:    51 TIME:   0.086 TIME LEFT:  2.00D  GRAD.:    13.897 HEAT: -320.2919
 CYCLE:    52 TIME:   0.078 TIME LEFT:  2.00D  GRAD.:    14.066 HEAT: -320.4821
 CYCLE:    53 TIME:   0.078 TIME LEFT:  2.00D  GRAD.:    18.499 HEAT: -320.7181
 CYCLE:    54 TIME:   0.078 TIME LEFT:  2.00D  GRAD.:    34.613 HEAT: -320.8912
 CYCLE:    55 TIME:   0.070 TIME LEFT:  2.00D  GRAD.:    14.128 HEAT: -321.1631
 CYCLE:    56 TIME:   0.070 TIME LEFT:  2.00D  GRAD.:    11.486 HEAT: -321.2949
 CYCLE:    57 TIME:   0.078 TIME LEFT:  2.00D  GRAD.:    12.885 HEAT: -321.4231
 CYCLE:    58 TIME:   0.078 TIME LEFT:  2.00D  GRAD.:    22.377 HEAT: -321.5727
 CYCLE:    59 TIME:   0.141 TIME LEFT:  2.00D  GRAD.:    11.910 HEAT: -321.7352
 CYCLE:    60 TIME:   0.070 TIME LEFT:  2.00D  GRAD.:     9.264 HEAT: -321.8182
 CYCLE:    61 TIME:   0.078 TIME LEFT:  2.00D  GRAD.:    11.637 HEAT: -321.9183
 CYCLE:    62 TIME:   0.070 TIME LEFT:  2.00D  GRAD.:    19.731 HEAT: -321.9673
 CYCLE:    63 TIME:   0.078 TIME LEFT:  2.00D  GRAD.:     6.886 HEAT: -322.0375
 CYCLE:    64 TIME:   0.070 TIME LEFT:  2.00D  GRAD.:     5.577 HEAT: -322.0660
 CYCLE:    65 TIME:   0.078 TIME LEFT:  2.00D  GRAD.:     7.185 HEAT: -322.0946
 CYCLE:    66 TIME:   0.086 TIME LEFT:  2.00D  GRAD.:     8.415 HEAT: -322.1521
 CYCLE:    67 TIME:   0.086 TIME LEFT:  2.00D  GRAD.:    21.912 HEAT: -322.1357
 CYCLE:    68 TIME:   0.078 TIME LEFT:  2.00D  GRAD.:     6.018 HEAT: -322.2170
 CYCLE:    69 TIME:   0.070 TIME LEFT:  2.00D  GRAD.:     3.942 HEAT: -322.2327
 CYCLE:    70 TIME:   0.070 TIME LEFT:  2.00D  GRAD.:     5.469 HEAT: -322.2588
 CYCLE:    71 TIME:   0.086 TIME LEFT:  2.00D  GRAD.:     7.904 HEAT: -322.2893
 CYCLE:    72 TIME:   0.133 TIME LEFT:  2.00D  GRAD.:     8.591 HEAT: -322.3273
 CYCLE:    73 TIME:   0.070 TIME LEFT:  2.00D  GRAD.:     5.759 HEAT: -322.3640
 CYCLE:    74 TIME:   0.078 TIME LEFT:  2.00D  GRAD.:     6.759 HEAT: -322.4041
 CYCLE:    75 TIME:   0.070 TIME LEFT:  2.00D  GRAD.:     8.614 HEAT: -322.4397
 CYCLE:    76 TIME:   0.070 TIME LEFT:  2.00D  GRAD.:     9.065 HEAT: -322.4825
 CYCLE:    77 TIME:   0.078 TIME LEFT:  2.00D  GRAD.:     5.985 HEAT: -322.5173
 CYCLE:    78 TIME:   0.062 TIME LEFT:  2.00D  GRAD.:     5.481 HEAT: -322.5438
 CYCLE:    79 TIME:   0.078 TIME LEFT:  2.00D  GRAD.:     5.989 HEAT: -322.5708
 CYCLE:    80 TIME:   0.070 TIME LEFT:  2.00D  GRAD.:    12.051 HEAT: -322.5950
 CYCLE:    81 TIME:   0.078 TIME LEFT:  2.00D  GRAD.:     5.946 HEAT: -322.6273
 CYCLE:    82 TIME:   0.070 TIME LEFT:  2.00D  GRAD.:     5.592 HEAT: -322.6551
 CYCLE:    83 TIME:   0.078 TIME LEFT:  2.00D  GRAD.:     7.166 HEAT: -322.6806
 CYCLE:    84 TIME:   0.078 TIME LEFT:  2.00D  GRAD.:     8.408 HEAT: -322.7376
 CYCLE:    85 TIME:   0.133 TIME LEFT:  2.00D  GRAD.:    14.735 HEAT: -322.7656
 CYCLE:    86 TIME:   0.070 TIME LEFT:  2.00D  GRAD.:     6.041 HEAT: -322.8373
 CYCLE:    87 TIME:   0.070 TIME LEFT:  2.00D  GRAD.:     4.927 HEAT: -322.8733
 CYCLE:    88 TIME:   0.078 TIME LEFT:  2.00D  GRAD.:     7.014 HEAT: -322.9210
 CYCLE:    89 TIME:   0.070 TIME LEFT:  2.00D  GRAD.:    11.942 HEAT: -322.9594
 CYCLE:    90 TIME:   0.078 TIME LEFT:  2.00D  GRAD.:     6.639 HEAT: -323.0048
 CYCLE:    91 TIME:   0.078 TIME LEFT:  2.00D  GRAD.:     5.303 HEAT: -323.0398
 CYCLE:    92 TIME:   0.070 TIME LEFT:  2.00D  GRAD.:     7.182 HEAT: -323.0686
 CYCLE:    93 TIME:   0.078 TIME LEFT:  2.00D  GRAD.:     8.331 HEAT: -323.1030
 CYCLE:    94 TIME:   0.078 TIME LEFT:  2.00D  GRAD.:     6.774 HEAT: -323.1484
 CYCLE:    95 TIME:   0.070 TIME LEFT:  2.00D  GRAD.:     8.225 HEAT: -323.2255
 CYCLE:    96 TIME:   0.070 TIME LEFT:  2.00D  GRAD.:    12.632 HEAT: -323.2818
 CYCLE:    97 TIME:   0.078 TIME LEFT:  2.00D  GRAD.:    12.097 HEAT: -323.3566
 CYCLE:    98 TIME:   0.078 TIME LEFT:  2.00D  GRAD.:     8.965 HEAT: -323.4451
 CYCLE:    99 TIME:   0.117 TIME LEFT:  2.00D  GRAD.:    10.416 HEAT: -323.5384
 CYCLE:   100 TIME:   0.078 TIME LEFT:  2.00D  GRAD.:    14.772 HEAT: -323.5847
 CYCLE:   101 TIME:   0.078 TIME LEFT:  2.00D  GRAD.:     8.132 HEAT: -323.6371
 CYCLE:   102 TIME:   0.086 TIME LEFT:  2.00D  GRAD.:     6.761 HEAT: -323.6952
 CYCLE:   103 TIME:   0.078 TIME LEFT:  2.00D  GRAD.:     9.261 HEAT: -323.7387
 CYCLE:   104 TIME:   0.070 TIME LEFT:  2.00D  GRAD.:    14.184 HEAT: -323.8075
 CYCLE:   105 TIME:   0.070 TIME LEFT:  2.00D  GRAD.:     8.586 HEAT: -323.8907
 CYCLE:   106 TIME:   0.078 TIME LEFT:  2.00D  GRAD.:     7.535 HEAT: -323.9472
 CYCLE:   107 TIME:   0.078 TIME LEFT:  2.00D  GRAD.:    10.003 HEAT: -323.9912
 CYCLE:   108 TIME:   0.078 TIME LEFT:  2.00D  GRAD.:     9.603 HEAT: -324.0412
 CYCLE:   109 TIME:   0.078 TIME LEFT:  2.00D  GRAD.:     6.816 HEAT: -324.0812
 CYCLE:   110 TIME:   0.062 TIME LEFT:  2.00D  GRAD.:     7.178 HEAT: -324.1173
 CYCLE:   111 TIME:   0.086 TIME LEFT:  2.00D  GRAD.:     9.171 HEAT: -324.1824
 CYCLE:   112 TIME:   0.133 TIME LEFT:  2.00D  GRAD.:    10.801 HEAT: -324.2455
 CYCLE:   113 TIME:   0.070 TIME LEFT:  2.00D  GRAD.:     7.373 HEAT: -324.3017
 CYCLE:   114 TIME:   0.078 TIME LEFT:  2.00D  GRAD.:     7.707 HEAT: -324.3417
 CYCLE:   115 TIME:   0.070 TIME LEFT:  2.00D  GRAD.:     9.153 HEAT: -324.3895
 CYCLE:   116 TIME:   0.078 TIME LEFT:  2.00D  GRAD.:    13.358 HEAT: -324.4190
 CYCLE:   117 TIME:   0.078 TIME LEFT:  2.00D  GRAD.:    10.231 HEAT: -324.4894
 CYCLE:   118 TIME:   0.070 TIME LEFT:  2.00D  GRAD.:     8.314 HEAT: -324.5379
 CYCLE:   119 TIME:   0.070 TIME LEFT:  2.00D  GRAD.:     7.599 HEAT: -324.5816
 CYCLE:   120 TIME:   0.070 TIME LEFT:  2.00D  GRAD.:     7.076 HEAT: -324.6355
 CYCLE:   121 TIME:   0.078 TIME LEFT:  2.00D  GRAD.:    21.669 HEAT: -324.6383
 CYCLE:   122 TIME:   0.070 TIME LEFT:  2.00D  GRAD.:     7.790 HEAT: -324.7368
 CYCLE:   123 TIME:   0.086 TIME LEFT:  2.00D  GRAD.:     5.712 HEAT: -324.7727
 CYCLE:   124 TIME:   0.070 TIME LEFT:  2.00D  GRAD.:     9.182 HEAT: -324.8299
 CYCLE:   125 TIME:   0.117 TIME LEFT:  2.00D  GRAD.:    13.088 HEAT: -324.8918
 CYCLE:   126 TIME:   0.086 TIME LEFT:  2.00D  GRAD.:    13.143 HEAT: -324.9521
 CYCLE:   127 TIME:   0.070 TIME LEFT:  2.00D  GRAD.:     7.179 HEAT: -325.0077
 CYCLE:   128 TIME:   0.070 TIME LEFT:  2.00D  GRAD.:     7.174 HEAT: -325.0498
 CYCLE:   129 TIME:   0.078 TIME LEFT:  2.00D  GRAD.:     8.597 HEAT: -325.0967
 CYCLE:   130 TIME:   0.078 TIME LEFT:  2.00D  GRAD.:    16.989 HEAT: -325.1475
 CYCLE:   131 TIME:   0.078 TIME LEFT:  2.00D  GRAD.:     7.458 HEAT: -325.2260
 CYCLE:   132 TIME:   0.070 TIME LEFT:  2.00D  GRAD.:     6.107 HEAT: -325.2606
 CYCLE:   133 TIME:   0.070 TIME LEFT:  2.00D  GRAD.:     8.534 HEAT: -325.3013
 CYCLE:   134 TIME:   0.078 TIME LEFT:  2.00D  GRAD.:     8.523 HEAT: -325.3451
 CYCLE:   135 TIME:   0.078 TIME LEFT:  2.00D  GRAD.:     7.605 HEAT: -325.4020
 CYCLE:   136 TIME:   0.070 TIME LEFT:  2.00D  GRAD.:     7.619 HEAT: -325.4625
 CYCLE:   137 TIME:   0.078 TIME LEFT:  2.00D  GRAD.:     8.062 HEAT: -325.5050
 CYCLE:   138 TIME:   0.094 TIME LEFT:  2.00D  GRAD.:     7.721 HEAT: -325.5607
 CYCLE:   139 TIME:   0.117 TIME LEFT:  2.00D  GRAD.:    22.740 HEAT: -325.5723
 CYCLE:   140 TIME:   0.078 TIME LEFT:  2.00D  GRAD.:     6.693 HEAT: -325.6669
 CYCLE:   141 TIME:   0.062 TIME LEFT:  2.00D  GRAD.:     4.970 HEAT: -325.6867
 CYCLE:   142 TIME:   0.078 TIME LEFT:  2.00D  GRAD.:     5.755 HEAT: -325.7302
 CYCLE:   143 TIME:   0.086 TIME LEFT:  2.00D  GRAD.:    13.555 HEAT: -325.7472
 CYCLE:   144 TIME:   0.086 TIME LEFT:  2.00D  GRAD.:     6.901 HEAT: -325.7892
 CYCLE:   145 TIME:   0.070 TIME LEFT:  2.00D  GRAD.:     4.196 HEAT: -325.8219
 CYCLE:   146 TIME:   0.086 TIME LEFT:  2.00D  GRAD.:     5.401 HEAT: -325.8436
 CYCLE:   147 TIME:   0.070 TIME LEFT:  2.00D  GRAD.:     8.958 HEAT: -325.8695
 CYCLE:   148 TIME:   0.078 TIME LEFT:  2.00D  GRAD.:     5.851 HEAT: -325.9027
 CYCLE:   149 TIME:   0.078 TIME LEFT:  2.00D  GRAD.:     5.169 HEAT: -325.9330
 CYCLE:   150 TIME:   0.086 TIME LEFT:  2.00D  GRAD.:     7.078 HEAT: -325.9766
 CYCLE:   151 TIME:   0.102 TIME LEFT:  2.00D  GRAD.:    10.845 HEAT: -326.0128
 CYCLE:   152 TIME:   0.094 TIME LEFT:  2.00D  GRAD.:     7.003 HEAT: -326.0534
 CYCLE:   153 TIME:   0.078 TIME LEFT:  2.00D  GRAD.:     5.720 HEAT: -326.1063
 CYCLE:   154 TIME:   0.070 TIME LEFT:  2.00D  GRAD.:     7.808 HEAT: -326.1245
 CYCLE:   155 TIME:   0.086 TIME LEFT:  2.00D  GRAD.:     5.559 HEAT: -326.1458
 CYCLE:   156 TIME:   0.070 TIME LEFT:  2.00D  GRAD.:     5.934 HEAT: -326.1735
 CYCLE:   157 TIME:   0.070 TIME LEFT:  2.00D  GRAD.:     5.036 HEAT: -326.1896
 CYCLE:   158 TIME:   0.070 TIME LEFT:  2.00D  GRAD.:     4.264 HEAT: -326.2019
 CYCLE:   159 TIME:   0.070 TIME LEFT:  2.00D  GRAD.:     5.265 HEAT: -326.2311
 CYCLE:   160 TIME:   0.086 TIME LEFT:  2.00D  GRAD.:     8.329 HEAT: -326.2432
 CYCLE:   161 TIME:   0.070 TIME LEFT:  2.00D  GRAD.:     4.211 HEAT: -326.2606
 CYCLE:   162 TIME:   0.070 TIME LEFT:  2.00D  GRAD.:     3.452 HEAT: -326.2781
 CYCLE:   163 TIME:   0.078 TIME LEFT:  2.00D  GRAD.:     4.085 HEAT: -326.2925
 CYCLE:   164 TIME:   0.109 TIME LEFT:  2.00D  GRAD.:     8.394 HEAT: -326.3126
 CYCLE:   165 TIME:   0.102 TIME LEFT:  2.00D  GRAD.:     4.720 HEAT: -326.3415
 CYCLE:   166 TIME:   0.086 TIME LEFT:  2.00D  GRAD.:     3.979 HEAT: -326.3618
 CYCLE:   167 TIME:   0.078 TIME LEFT:  2.00D  GRAD.:     7.058 HEAT: -326.3879
 CYCLE:   168 TIME:   0.078 TIME LEFT:  2.00D  GRAD.:     5.186 HEAT: -326.4047
 CYCLE:   169 TIME:   0.070 TIME LEFT:  2.00D  GRAD.:     3.846 HEAT: -326.4177
 CYCLE:   170 TIME:   0.070 TIME LEFT:  2.00D  GRAD.:     5.095 HEAT: -326.4386
 CYCLE:   171 TIME:   0.086 TIME LEFT:  2.00D  GRAD.:     7.391 HEAT: -326.4484
 CYCLE:   172 TIME:   0.070 TIME LEFT:  2.00D  GRAD.:     4.139 HEAT: -326.4603
 CYCLE:   173 TIME:   0.070 TIME LEFT:  2.00D  GRAD.:     3.666 HEAT: -326.4756
 CYCLE:   174 TIME:   0.070 TIME LEFT:  2.00D  GRAD.:     4.213 HEAT: -326.4879
 CYCLE:   175 TIME:   0.086 TIME LEFT:  2.00D  GRAD.:     7.521 HEAT: -326.5195
 CYCLE:   176 TIME:   0.070 TIME LEFT:  2.00D  GRAD.:     5.988 HEAT: -326.5472
 CYCLE:   177 TIME:   0.125 TIME LEFT:  2.00D  GRAD.:     5.043 HEAT: -326.5771
 CYCLE:   178 TIME:   0.102 TIME LEFT:  2.00D  GRAD.:     6.166 HEAT: -326.6082
 CYCLE:   179 TIME:   0.086 TIME LEFT:  2.00D  GRAD.:     6.653 HEAT: -326.6287
 CYCLE:   180 TIME:   0.078 TIME LEFT:  2.00D  GRAD.:     4.622 HEAT: -326.6491
 CYCLE:   181 TIME:   0.078 TIME LEFT:  2.00D  GRAD.:     4.155 HEAT: -326.6681
 CYCLE:   182 TIME:   0.070 TIME LEFT:  2.00D  GRAD.:     5.411 HEAT: -326.6829
 CYCLE:   183 TIME:   0.062 TIME LEFT:  2.00D  GRAD.:     4.786 HEAT: -326.7009
 CYCLE:   184 TIME:   0.070 TIME LEFT:  2.00D  GRAD.:     7.061 HEAT: -326.7196
 CYCLE:   185 TIME:   0.078 TIME LEFT:  2.00D  GRAD.:     4.592 HEAT: -326.7370
 CYCLE:   186 TIME:   0.078 TIME LEFT:  2.00D  GRAD.:     4.045 HEAT: -326.7484
 CYCLE:   187 TIME:   0.062 TIME LEFT:  2.00D  GRAD.:     5.804 HEAT: -326.7740
 CYCLE:   188 TIME:   0.086 TIME LEFT:  2.00D  GRAD.:     9.093 HEAT: -326.7847
 CYCLE:   189 TIME:   0.070 TIME LEFT:  2.00D  GRAD.:     4.039 HEAT: -326.8028
 CYCLE:   190 TIME:   0.094 TIME LEFT:  2.00D  GRAD.:     3.194 HEAT: -326.8165
 CYCLE:   191 TIME:   0.102 TIME LEFT:  2.00D  GRAD.:     4.058 HEAT: -326.8324
 CYCLE:   192 TIME:   0.078 TIME LEFT:  2.00D  GRAD.:     4.883 HEAT: -326.8598
 CYCLE:   193 TIME:   0.078 TIME LEFT:  2.00D  GRAD.:     7.978 HEAT: -326.8788
 CYCLE:   194 TIME:   0.070 TIME LEFT:  2.00D  GRAD.:     4.538 HEAT: -326.9012
 CYCLE:   195 TIME:   0.070 TIME LEFT:  2.00D  GRAD.:     3.388 HEAT: -326.9132
 CYCLE:   196 TIME:   0.078 TIME LEFT:  2.00D  GRAD.:     3.784 HEAT: -326.9288
 CYCLE:   197 TIME:   0.070 TIME LEFT:  2.00D  GRAD.:     6.190 HEAT: -326.9440
 CYCLE:   198 TIME:   0.078 TIME LEFT:  2.00D  GRAD.:     3.960 HEAT: -326.9597
 CYCLE:   199 TIME:   0.078 TIME LEFT:  2.00D  GRAD.:     3.318 HEAT: -326.9721
 CYCLE:   200 TIME:   0.086 TIME LEFT:  2.00D  GRAD.:     5.651 HEAT: -326.9872
 CYCLE:   201 TIME:   0.070 TIME LEFT:  2.00D  GRAD.:     5.125 HEAT: -327.0016
 CYCLE:   202 TIME:   0.086 TIME LEFT:  2.00D  GRAD.:     3.512 HEAT: -327.0168
 CYCLE:   203 TIME:   0.094 TIME LEFT:  2.00D  GRAD.:     3.633 HEAT: -327.0320
 CYCLE:   204 TIME:   0.109 TIME LEFT:  2.00D  GRAD.:     5.468 HEAT: -327.0444
 CYCLE:   205 TIME:   0.078 TIME LEFT:  2.00D  GRAD.:     3.668 HEAT: -327.0558
 CYCLE:   206 TIME:   0.070 TIME LEFT:  2.00D  GRAD.:     3.055 HEAT: -327.0696
 CYCLE:   207 TIME:   0.086 TIME LEFT:  2.00D  GRAD.:     4.284 HEAT: -327.0779
 CYCLE:   208 TIME:   0.078 TIME LEFT:  2.00D  GRAD.:     3.799 HEAT: -327.0898
 CYCLE:   209 TIME:   0.078 TIME LEFT:  2.00D  GRAD.:     4.932 HEAT: -327.1030
 CYCLE:   210 TIME:   0.078 TIME LEFT:  2.00D  GRAD.:     3.734 HEAT: -327.1139
 CYCLE:   211 TIME:   0.078 TIME LEFT:  2.00D  GRAD.:     3.699 HEAT: -327.1233
 CYCLE:   212 TIME:   0.070 TIME LEFT:  2.00D  GRAD.:     5.825 HEAT: -327.1481
 CYCLE:   213 TIME:   0.078 TIME LEFT:  2.00D  GRAD.:     9.010 HEAT: -327.1567
 CYCLE:   214 TIME:   0.062 TIME LEFT:  2.00D  GRAD.:     3.640 HEAT: -327.1758
 CYCLE:   215 TIME:   0.078 TIME LEFT:  2.00D  GRAD.:     3.115 HEAT: -327.1874
 CYCLE:   216 TIME:   0.086 TIME LEFT:  2.00D  GRAD.:     4.161 HEAT: -327.2019
 CYCLE:   217 TIME:   0.094 TIME LEFT:  2.00D  GRAD.:     9.943 HEAT: -327.2076
 CYCLE:   218 TIME:   0.094 TIME LEFT:  2.00D  GRAD.:     3.326 HEAT: -327.2251
 CYCLE:   219 TIME:   0.070 TIME LEFT:  2.00D  GRAD.:     2.721 HEAT: -327.2325
 CYCLE:   220 TIME:   0.078 TIME LEFT:  2.00D  GRAD.:     3.311 HEAT: -327.2432
 CYCLE:   221 TIME:   0.086 TIME LEFT:  2.00D  GRAD.:     4.576 HEAT: -327.2580
 CYCLE:   222 TIME:   0.070 TIME LEFT:  2.00D  GRAD.:     7.233 HEAT: -327.2695
 CYCLE:   223 TIME:   0.078 TIME LEFT:  2.00D  GRAD.:     3.168 HEAT: -327.2857
 CYCLE:   224 TIME:   0.070 TIME LEFT:  2.00D  GRAD.:     3.155 HEAT: -327.2945
 CYCLE:   225 TIME:   0.078 TIME LEFT:  2.00D  GRAD.:     4.872 HEAT: -327.3070
 CYCLE:   226 TIME:   0.070 TIME LEFT:  2.00D  GRAD.:     6.176 HEAT: -327.3220
 CYCLE:   227 TIME:   0.078 TIME LEFT:  2.00D  GRAD.:     3.744 HEAT: -327.3370
 CYCLE:   228 TIME:   0.070 TIME LEFT:  2.00D  GRAD.:     3.791 HEAT: -327.3526
 CYCLE:   229 TIME:   0.078 TIME LEFT:  2.00D  GRAD.:     4.190 HEAT: -327.3656
 CYCLE:   230 TIME:   0.094 TIME LEFT:  2.00D  GRAD.:     7.595 HEAT: -327.3796
 CYCLE:   231 TIME:   0.086 TIME LEFT:  2.00D  GRAD.:     3.498 HEAT: -327.3967
 CYCLE:   232 TIME:   0.078 TIME LEFT:  2.00D  GRAD.:     2.900 HEAT: -327.4041
 CYCLE:   233 TIME:   0.078 TIME LEFT:  2.00D  GRAD.:     3.453 HEAT: -327.4144
 CYCLE:   234 TIME:   0.062 TIME LEFT:  2.00D  GRAD.:     9.081 HEAT: -327.4185
 CYCLE:   235 TIME:   0.078 TIME LEFT:  2.00D  GRAD.:     3.428 HEAT: -327.4313
 CYCLE:   236 TIME:   0.070 TIME LEFT:  2.00D  GRAD.:     2.539 HEAT: -327.4384
 CYCLE:   237 TIME:   0.070 TIME LEFT:  2.00D  GRAD.:     3.442 HEAT: -327.4451
 CYCLE:   238 TIME:   0.070 TIME LEFT:  2.00D  GRAD.:     4.276 HEAT: -327.4587
 CYCLE:   239 TIME:   0.086 TIME LEFT:  2.00D  GRAD.:     6.965 HEAT: -327.4711
 CYCLE:   240 TIME:   0.078 TIME LEFT:  2.00D  GRAD.:     5.354 HEAT: -327.4898
 CYCLE:   241 TIME:   0.078 TIME LEFT:  2.00D  GRAD.:     3.216 HEAT: -327.5002
 CYCLE:   242 TIME:   0.078 TIME LEFT:  2.00D  GRAD.:     2.957 HEAT: -327.5085
 CYCLE:   243 TIME:   0.094 TIME LEFT:  2.00D  GRAD.:     3.235 HEAT: -327.5178
 CYCLE:   244 TIME:   0.109 TIME LEFT:  2.00D  GRAD.:     7.404 HEAT: -327.5248
 CYCLE:   245 TIME:   0.086 TIME LEFT:  2.00D  GRAD.:     2.473 HEAT: -327.5381
 CYCLE:   246 TIME:   0.078 TIME LEFT:  2.00D  GRAD.:     2.184 HEAT: -327.5422
 CYCLE:   247 TIME:   0.078 TIME LEFT:  2.00D  GRAD.:     2.224 HEAT: -327.5486
 CYCLE:   248 TIME:   0.078 TIME LEFT:  2.00D  GRAD.:     3.369 HEAT: -327.5541
 CYCLE:   249 TIME:   0.070 TIME LEFT:  2.00D  GRAD.:     1.977 HEAT: -327.5602
 CYCLE:   250 TIME:   0.070 TIME LEFT:  2.00D  GRAD.:     1.947 HEAT: -327.5642
 CYCLE:   251 TIME:   0.070 TIME LEFT:  2.00D  GRAD.:     2.666 HEAT: -327.5689
 CYCLE:   252 TIME:   0.070 TIME LEFT:  2.00D  GRAD.:     2.462 HEAT: -327.5756
 CYCLE:   253 TIME:   0.062 TIME LEFT:  2.00D  GRAD.:     3.562 HEAT: -327.5809
 CYCLE:   254 TIME:   0.078 TIME LEFT:  2.00D  GRAD.:     2.235 HEAT: -327.5856
 CYCLE:   255 TIME:   0.070 TIME LEFT:  2.00D  GRAD.:     1.999 HEAT: -327.5888
 CYCLE:   256 TIME:   0.094 TIME LEFT:  2.00D  GRAD.:     2.712 HEAT: -327.5942
 CYCLE:   257 TIME:   0.102 TIME LEFT:  2.00D  GRAD.:     4.366 HEAT: -327.5985
 CYCLE:   258 TIME:   0.086 TIME LEFT:  2.00D  GRAD.:     1.959 HEAT: -327.6035
 CYCLE:   259 TIME:   0.078 TIME LEFT:  2.00D  GRAD.:     1.506 HEAT: -327.6062
 CYCLE:   260 TIME:   0.086 TIME LEFT:  2.00D  GRAD.:     1.656 HEAT: -327.6086
 CYCLE:   261 TIME:   0.078 TIME LEFT:  2.00D  GRAD.:     4.463 HEAT: -327.6108
 CYCLE:   262 TIME:   0.070 TIME LEFT:  2.00D  GRAD.:     1.602 HEAT: -327.6147
 CYCLE:   263 TIME:   0.062 TIME LEFT:  2.00D  GRAD.:     1.393 HEAT: -327.6163
 CYCLE:   264 TIME:   0.078 TIME LEFT:  2.00D  GRAD.:     1.707 HEAT: -327.6186
 CYCLE:   265 TIME:   0.070 TIME LEFT:  2.00D  GRAD.:     1.756 HEAT: -327.6217
 CYCLE:   266 TIME:   0.086 TIME LEFT:  2.00D  GRAD.:     4.267 HEAT: -327.6219
 CYCLE:   267 TIME:   0.070 TIME LEFT:  2.00D  GRAD.:     1.167 HEAT: -327.6256
 CYCLE:   268 TIME:   0.078 TIME LEFT:  2.00D  GRAD.:     1.058 HEAT: -327.6264
 CYCLE:   269 TIME:   0.062 TIME LEFT:  2.00D  GRAD.:     1.426 HEAT: -327.6286
 CYCLE:   270 TIME:   0.102 TIME LEFT:  2.00D  GRAD.:     3.291 HEAT: -327.6301
 CYCLE:   271 TIME:   0.094 TIME LEFT:  2.00D  GRAD.:     1.603 HEAT: -327.6325
 CYCLE:   272 TIME:   0.070 TIME LEFT:  2.00D  GRAD.:     1.312 HEAT: -327.6342
 CYCLE:   273 TIME:   0.070 TIME LEFT:  2.00D  GRAD.:     1.734 HEAT: -327.6361
 CYCLE:   274 TIME:   0.078 TIME LEFT:  2.00D  GRAD.:     2.683 HEAT: -327.6390
 CYCLE:   275 TIME:   0.070 TIME LEFT:  2.00D  GRAD.:     2.407 HEAT: -327.6427
 CYCLE:   276 TIME:   0.078 TIME LEFT:  2.00D  GRAD.:     1.785 HEAT: -327.6464
 CYCLE:   277 TIME:   0.086 TIME LEFT:  2.00D  GRAD.:     2.662 HEAT: -327.6503
 CYCLE:   278 TIME:   0.078 TIME LEFT:  2.00D  GRAD.:     2.800 HEAT: -327.6531
 CYCLE:   279 TIME:   0.070 TIME LEFT:  2.00D  GRAD.:     2.160 HEAT: -327.6555
 CYCLE:   280 TIME:   0.078 TIME LEFT:  2.00D  GRAD.:     1.614 HEAT: -327.6609
 CYCLE:   281 TIME:   0.070 TIME LEFT:  2.00D  GRAD.:     3.748 HEAT: -327.6634
 CYCLE:   282 TIME:   0.062 TIME LEFT:  2.00D  GRAD.:     1.776 HEAT: -327.6669
 CYCLE:   283 TIME:   0.078 TIME LEFT:  2.00D  GRAD.:     1.413 HEAT: -327.6703
 CYCLE:   284 TIME:   0.102 TIME LEFT:  2.00D  GRAD.:     1.508 HEAT: -327.6733
 CYCLE:   285 TIME:   0.094 TIME LEFT:  2.00D  GRAD.:     4.256 HEAT: -327.6731
 CYCLE:   286 TIME:   0.070 TIME LEFT:  2.00D  GRAD.:     1.321 HEAT: -327.6761
 CYCLE:   287 TIME:   0.062 TIME LEFT:  2.00D  GRAD.:     1.019 HEAT: -327.6772
 CYCLE:   288 TIME:   0.078 TIME LEFT:  2.00D  GRAD.:     1.570 HEAT: -327.6792
 CYCLE:   289 TIME:   0.086 TIME LEFT:  2.00D  GRAD.:     1.851 HEAT: -327.6814
 CYCLE:   290 TIME:   0.078 TIME LEFT:  2.00D  GRAD.:     7.788 HEAT: -327.6768
 CYCLE:   291 TIME:   0.078 TIME LEFT:  2.00D  GRAD.:     1.390 HEAT: -327.6858
 CYCLE:   292 TIME:   0.078 TIME LEFT:  2.00D  GRAD.:     0.993 HEAT: -327.6866
 CYCLE:   293 TIME:   0.078 TIME LEFT:  2.00D  GRAD.:     1.182 HEAT: -327.6883
 CYCLE:   294 TIME:   0.078 TIME LEFT:  2.00D  GRAD.:     1.699 HEAT: -327.6902
 CYCLE:   295 TIME:   0.070 TIME LEFT:  2.00D  GRAD.:     2.064 HEAT: -327.6926
 CYCLE:   296 TIME:   0.078 TIME LEFT:  2.00D  GRAD.:     1.932 HEAT: -327.6947
 CYCLE:   297 TIME:   0.094 TIME LEFT:  2.00D  GRAD.:     1.185 HEAT: -327.6962
 CYCLE:   298 TIME:   0.094 TIME LEFT:  2.00D  GRAD.:     1.080 HEAT: -327.6977
 CYCLE:   299 TIME:   0.078 TIME LEFT:  2.00D  GRAD.:     1.587 HEAT: -327.6989
 CYCLE:   300 TIME:   0.078 TIME LEFT:  2.00D  GRAD.:     1.007 HEAT: -327.7001
 CYCLE:   301 TIME:   0.070 TIME LEFT:  2.00D  GRAD.:     0.840 HEAT: -327.7009
 CYCLE:   302 TIME:   0.070 TIME LEFT:  2.00D  GRAD.:     1.007 HEAT: -327.7016
 CYCLE:   303 TIME:   0.070 TIME LEFT:  2.00D  GRAD.:     0.835 HEAT: -327.7022
 CYCLE:   304 TIME:   0.086 TIME LEFT:  2.00D  GRAD.:     0.830 HEAT: -327.7031
 CYCLE:   305 TIME:   0.078 TIME LEFT:  2.00D  GRAD.:     1.927 HEAT: -327.7033
 CYCLE:   306 TIME:   0.078 TIME LEFT:  2.00D  GRAD.:     0.760 HEAT: -327.7040
 CYCLE:   307 TIME:   0.070 TIME LEFT:  2.00D  GRAD.:     0.578 HEAT: -327.7043
 CYCLE:   308 TIME:   0.086 TIME LEFT:  2.00D  GRAD.:     0.705 HEAT: -327.7048
 CYCLE:   309 TIME:   0.078 TIME LEFT:  2.00D  GRAD.:     0.936 HEAT: -327.7053
 CYCLE:   310 TIME:   0.086 TIME LEFT:  2.00D  GRAD.:     1.259 HEAT: -327.7058
 CYCLE:   311 TIME:   0.094 TIME LEFT:  2.00D  GRAD.:     0.635 HEAT: -327.7063
 CYCLE:   312 TIME:   0.078 TIME LEFT:  2.00D  GRAD.:     0.728 HEAT: -327.7067
 CYCLE:   313 TIME:   0.086 TIME LEFT:  2.00D  GRAD.:     0.959 HEAT: -327.7073
 CYCLE:   314 TIME:   0.078 TIME LEFT:  2.00D  GRAD.:     1.746 HEAT: -327.7079
 CYCLE:   315 TIME:   0.070 TIME LEFT:  2.00D  GRAD.:     0.874 HEAT: -327.7088
 CYCLE:   316 TIME:   0.086 TIME LEFT:  2.00D  GRAD.:     0.773 HEAT: -327.7094
 CYCLE:   317 TIME:   0.062 TIME LEFT:  2.00D  GRAD.:     0.892 HEAT: -327.7100
 CYCLE:   318 TIME:   0.086 TIME LEFT:  2.00D  GRAD.:     1.295 HEAT: -327.7110
 CYCLE:   319 TIME:   0.070 TIME LEFT:  2.00D  GRAD.:     1.168 HEAT: -327.7119
 CYCLE:   320 TIME:   0.078 TIME LEFT:  2.00D  GRAD.:     0.750 HEAT: -327.7126
 CYCLE:   321 TIME:   0.070 TIME LEFT:  2.00D  GRAD.:     0.944 HEAT: -327.7135
 CYCLE:   322 TIME:   0.078 TIME LEFT:  2.00D  GRAD.:     1.237 HEAT: -327.7142
 CYCLE:   323 TIME:   0.078 TIME LEFT:  2.00D  GRAD.:     0.978 HEAT: -327.7153
 CYCLE:   324 TIME:   0.102 TIME LEFT:  2.00D  GRAD.:     1.139 HEAT: -327.7162
 CYCLE:   325 TIME:   0.086 TIME LEFT:  2.00D  GRAD.:     1.059 HEAT: -327.7170
 CYCLE:   326 TIME:   0.070 TIME LEFT:  2.00D  GRAD.:     0.800 HEAT: -327.7175
 CYCLE:   327 TIME:   0.078 TIME LEFT:  2.00D  GRAD.:     0.731 HEAT: -327.7182
 CYCLE:   328 TIME:   0.078 TIME LEFT:  2.00D  GRAD.:     1.268 HEAT: -327.7186
 CYCLE:   329 TIME:   0.070 TIME LEFT:  2.00D  GRAD.:     0.689 HEAT: -327.7190
 CYCLE:   330 TIME:   0.070 TIME LEFT:  2.00D  GRAD.:     0.564 HEAT: -327.7194
 CYCLE:   331 TIME:   0.078 TIME LEFT:  2.00D  GRAD.:     0.665 HEAT: -327.7197
 CYCLE:   332 TIME:   0.070 TIME LEFT:  2.00D  GRAD.:     1.551 HEAT: -327.7200
 CYCLE:   333 TIME:   0.070 TIME LEFT:  2.00D  GRAD.:     0.636 HEAT: -327.7205
 CYCLE:   334 TIME:   0.070 TIME LEFT:  2.00D  GRAD.:     0.497 HEAT: -327.7209
 CYCLE:   335 TIME:   0.078 TIME LEFT:  2.00D  GRAD.:     0.680 HEAT: -327.7212
 CYCLE:   336 TIME:   0.086 TIME LEFT:  2.00D  GRAD.:     1.356 HEAT: -327.7215
 CYCLE:   337 TIME:   0.086 TIME LEFT:  2.00D  GRAD.:     0.584 HEAT: -327.7219
 CYCLE:   338 TIME:   0.094 TIME LEFT:  2.00D  GRAD.:     0.451 HEAT: -327.7221
 CYCLE:   339 TIME:   0.070 TIME LEFT:  2.00D  GRAD.:     0.536 HEAT: -327.7224
 CYCLE:   340 TIME:   0.078 TIME LEFT:  2.00D  GRAD.:     0.646 HEAT: -327.7227
 CYCLE:   341 TIME:   0.078 TIME LEFT:  2.00D  GRAD.:     1.228 HEAT: -327.7227
 CYCLE:   342 TIME:   0.086 TIME LEFT:  2.00D  GRAD.:     0.351 HEAT: -327.7231
 CYCLE:   343 TIME:   0.062 TIME LEFT:  2.00D  GRAD.:     0.317 HEAT: -327.7231
 CYCLE:   344 TIME:   0.078 TIME LEFT:  2.00D  GRAD.:     0.429 HEAT: -327.7233
 CYCLE:   345 TIME:   0.070 TIME LEFT:  2.00D  GRAD.:     0.942 HEAT: -327.7234
 CYCLE:   346 TIME:   0.070 TIME LEFT:  2.00D  GRAD.:     0.449 HEAT: -327.7236
 CYCLE:   347 TIME:   0.086 TIME LEFT:  2.00D  GRAD.:     0.334 HEAT: -327.7238
 CYCLE:   348 TIME:   0.070 TIME LEFT:  2.00D  GRAD.:     0.411 HEAT: -327.7239
 CYCLE:   349 TIME:   0.070 TIME LEFT:  2.00D  GRAD.:     0.779 HEAT: -327.7240
 CYCLE:   350 TIME:   0.086 TIME LEFT:  2.00D  GRAD.:     0.484 HEAT: -327.7242
 CYCLE:   351 TIME:   0.086 TIME LEFT:  2.00D  GRAD.:     0.381 HEAT: -327.7244
 CYCLE:   352 TIME:   0.094 TIME LEFT:  2.00D  GRAD.:     0.557 HEAT: -327.7245
 CYCLE:   353 TIME:   0.070 TIME LEFT:  2.00D  GRAD.:     0.566 HEAT: -327.7247
 CYCLE:   354 TIME:   0.086 TIME LEFT:  2.00D  GRAD.:     0.564 HEAT: -327.7250
 CYCLE:   355 TIME:   0.070 TIME LEFT:  2.00D  GRAD.:     0.998 HEAT: -327.7252
 CYCLE:   356 TIME:   0.070 TIME LEFT:  2.00D  GRAD.:     0.435 HEAT: -327.7255
 CYCLE:   357 TIME:   0.070 TIME LEFT:  2.00D  GRAD.:     0.451 HEAT: -327.7257
 CYCLE:   358 TIME:   0.070 TIME LEFT:  2.00D  GRAD.:     0.493 HEAT: -327.7259
 CYCLE:   359 TIME:   0.078 TIME LEFT:  2.00D  GRAD.:     0.725 HEAT: -327.7263
 CYCLE:   360 TIME:   0.078 TIME LEFT:  2.00D  GRAD.:     0.621 HEAT: -327.7265
 CYCLE:   361 TIME:   0.086 TIME LEFT:  2.00D  GRAD.:     0.337 HEAT: -327.7267
 CYCLE:   362 TIME:   0.078 TIME LEFT:  2.00D  GRAD.:     0.395 HEAT: -327.7268
 CYCLE:   363 TIME:   0.086 TIME LEFT:  2.00D  GRAD.:     0.573 HEAT: -327.7270
 CYCLE:   364 TIME:   0.094 TIME LEFT:  2.00D  GRAD.:     0.475 HEAT: -327.7272
 CYCLE:   365 TIME:   0.094 TIME LEFT:  2.00D  GRAD.:     0.419 HEAT: -327.7274
 CYCLE:   366 TIME:   0.070 TIME LEFT:  2.00D  GRAD.:     0.417 HEAT: -327.7276
 CYCLE:   367 TIME:   0.070 TIME LEFT:  2.00D  GRAD.:     0.608 HEAT: -327.7277
 CYCLE:   368 TIME:   0.070 TIME LEFT:  2.00D  GRAD.:     0.398 HEAT: -327.7279
 CYCLE:   369 TIME:   0.070 TIME LEFT:  2.00D  GRAD.:     0.357 HEAT: -327.7280
 CYCLE:   370 TIME:   0.078 TIME LEFT:  2.00D  GRAD.:     0.439 HEAT: -327.7282
 CYCLE:   371 TIME:   0.070 TIME LEFT:  2.00D  GRAD.:     0.791 HEAT: -327.7283
 CYCLE:   372 TIME:   0.070 TIME LEFT:  2.00D  GRAD.:     0.337 HEAT: -327.7284
 CYCLE:   373 TIME:   0.070 TIME LEFT:  2.00D  GRAD.:     0.293 HEAT: -327.7285
 CYCLE:   374 TIME:   0.070 TIME LEFT:  2.00D  GRAD.:     0.389 HEAT: -327.7286
 CYCLE:   375 TIME:   0.070 TIME LEFT:  2.00D  GRAD.:     0.629 HEAT: -327.7288
 CYCLE:   376 TIME:   0.078 TIME LEFT:  2.00D  GRAD.:     0.474 HEAT: -327.7290
 CYCLE:   377 TIME:   0.078 TIME LEFT:  2.00D  GRAD.:     0.292 HEAT: -327.7291
 CYCLE:   378 TIME:   0.094 TIME LEFT:  2.00D  GRAD.:     0.322 HEAT: -327.7292
 CYCLE:   379 TIME:   0.086 TIME LEFT:  2.00D  GRAD.:     0.418 HEAT: -327.7293
 CYCLE:   380 TIME:   0.078 TIME LEFT:  2.00D  GRAD.:     0.343 HEAT: -327.7294
 CYCLE:   381 TIME:   0.086 TIME LEFT:  2.00D  GRAD.:     0.556 HEAT: -327.7295
 CYCLE:   382 TIME:   0.062 TIME LEFT:  2.00D  GRAD.:     0.274 HEAT: -327.7295
 CYCLE:   383 TIME:   0.078 TIME LEFT:  2.00D  GRAD.:     0.267 HEAT: -327.7296
 CYCLE:   384 TIME:   0.070 TIME LEFT:  2.00D  GRAD.:     0.370 HEAT: -327.7297
 CYCLE:   385 TIME:   0.070 TIME LEFT:  2.00D  GRAD.:     0.880 HEAT: -327.7297
 CYCLE:   386 TIME:   0.070 TIME LEFT:  2.00D  GRAD.:     0.292 HEAT: -327.7298
 CYCLE:   387 TIME:   0.078 TIME LEFT:  2.00D  GRAD.:     0.218 HEAT: -327.7299
 CYCLE:   388 TIME:   0.062 TIME LEFT:  2.00D  GRAD.:     0.300 HEAT: -327.7300
 CYCLE:   389 TIME:   0.078 TIME LEFT:  2.00D  GRAD.:     0.360 HEAT: -327.7301
 CYCLE:   390 TIME:   0.086 TIME LEFT:  2.00D  GRAD.:     0.716 HEAT: -327.7302
 CYCLE:   391 TIME:   0.070 TIME LEFT:  2.00D  GRAD.:     0.334 HEAT: -327.7304
 CYCLE:   392 TIME:   0.094 TIME LEFT:  2.00D  GRAD.:     0.243 HEAT: -327.7305
 CYCLE:   393 TIME:   0.094 TIME LEFT:  2.00D  GRAD.:     0.363 HEAT: -327.7306
 CYCLE:   394 TIME:   0.070 TIME LEFT:  2.00D  GRAD.:     0.407 HEAT: -327.7306
 CYCLE:   395 TIME:   0.070 TIME LEFT:  2.00D  GRAD.:     0.290 HEAT: -327.7307
 CYCLE:   396 TIME:   0.070 TIME LEFT:  2.00D  GRAD.:     0.360 HEAT: -327.7308
 CYCLE:   397 TIME:   0.070 TIME LEFT:  2.00D  GRAD.:     0.514 HEAT: -327.7309
 CYCLE:   398 TIME:   0.070 TIME LEFT:  2.00D  GRAD.:     0.404 HEAT: -327.7309
 CYCLE:   399 TIME:   0.078 TIME LEFT:  2.00D  GRAD.:     0.332 HEAT: -327.7312
 CYCLE:   400 TIME:   0.094 TIME LEFT:  2.00D  GRAD.:     0.579 HEAT: -327.7312
 CYCLE:   401 TIME:   0.070 TIME LEFT:  2.00D  GRAD.:     0.469 HEAT: -327.7314
 CYCLE:   402 TIME:   0.062 TIME LEFT:  2.00D  GRAD.:     0.545 HEAT: -327.7316
 CYCLE:   403 TIME:   0.078 TIME LEFT:  2.00D  GRAD.:     0.440 HEAT: -327.7318
 CYCLE:   404 TIME:   0.086 TIME LEFT:  2.00D  GRAD.:     0.470 HEAT: -327.7319
 CYCLE:   405 TIME:   0.070 TIME LEFT:  2.00D  GRAD.:     0.407 HEAT: -327.7322
 CYCLE:   406 TIME:   0.109 TIME LEFT:  2.00D  GRAD.:     0.716 HEAT: -327.7324
 CYCLE:   407 TIME:   0.078 TIME LEFT:  2.00D  GRAD.:     0.365 HEAT: -327.7325
 CYCLE:   408 TIME:   0.086 TIME LEFT:  2.00D  GRAD.:     0.243 HEAT: -327.7326
 CYCLE:   409 TIME:   0.070 TIME LEFT:  2.00D  GRAD.:     0.235 HEAT: -327.7327
 CYCLE:   410 TIME:   0.078 TIME LEFT:  2.00D  GRAD.:     0.559 HEAT: -327.7327
 CYCLE:   411 TIME:   0.070 TIME LEFT:  2.00D  GRAD.:     0.342 HEAT: -327.7328
 CYCLE:   412 TIME:   0.070 TIME LEFT:  2.00D  GRAD.:     0.245 HEAT: -327.7329
 CYCLE:   413 TIME:   0.070 TIME LEFT:  2.00D  GRAD.:     0.343 HEAT: -327.7330
 CYCLE:   414 TIME:   0.078 TIME LEFT:  2.00D  GRAD.:     0.260 HEAT: -327.7331
 CYCLE:   415 TIME:   0.086 TIME LEFT:  2.00D  GRAD.:     0.293 HEAT: -327.7332
 CYCLE:   416 TIME:   0.070 TIME LEFT:  2.00D  GRAD.:     0.389 HEAT: -327.7332
 CYCLE:   417 TIME:   0.070 TIME LEFT:  2.00D  GRAD.:     0.218 HEAT: -327.7333
 CYCLE:   418 TIME:   0.078 TIME LEFT:  2.00D  GRAD.:     0.176 HEAT: -327.7333

 -------------------------------------------------------------------------------
 AUX LARGE CHARGE=0 SINGLET  PM6  OPT PRECISE PRTXYZ
 CN275.pdb
 65


     HERBERTS TEST WAS SATISFIED IN BFGS                      
     SCF FIELD WAS ACHIEVED                                   


                              PM6 CALCULATION
                                                       MOPAC2016 (Version: 20.225L)
                                                       Fri Aug 14 20:41:13 2020
                                                       No. of days remaining = 364




          FINAL HEAT OF FORMATION =       -327.73331 KCAL/MOL =   -1371.23615 KJ/MOL


          TOTAL ENERGY            =      -6818.22578 EV
          ELECTRONIC ENERGY       =     -68786.13938 EV  POINT GROUP:     C1  
          CORE-CORE REPULSION     =      61967.91359 EV
          COSMO AREA              =        459.41 SQUARE ANGSTROMS
          COSMO VOLUME            =        588.38 CUBIC ANGSTROMS

          GRADIENT NORM           =          0.17577 = 0.02180 PER ATOM
          IONIZATION POTENTIAL    =          8.461644 EV
          HOMO LUMO ENERGIES (EV) =         -8.462 -1.953
          NO. OF FILLED LEVELS    =        101
          MOLECULAR WEIGHT        =        534.5184

          MOLECULAR DIMENSIONS (Angstroms)

            Atom       Atom       Distance
            H    65    H    42    12.35284
            H    62    H    45    11.29232
            H    51    H    58     9.46155


          SCF CALCULATIONS        =        419
 
          WALL-CLOCK TIME         =         33.258 SECONDS
          COMPUTATION TIME        =  1 MINUTE AND  4.281 SECONDS




   ATOM   CHEMICAL          X               Y               Z
  NUMBER   SYMBOL      (ANGSTROMS)     (ANGSTROMS)     (ANGSTROMS)
 
     1       C         -2.55997750  *   2.63567774  *   1.47372160  *
     2       C         -2.64039101  *   1.43444121  *   0.78239225  *
     3       C         -1.50324663  *   0.68533232  *   0.34615872  *
     4       C         -0.25360871  *   1.32846020  *   0.52865482  *
     5       C         -0.12953777  *   2.57216912  *   1.21392224  *
     6       C         -1.28700952  *   3.18649877  *   1.71365447  *
     7       C         -1.52327530  *  -0.67279694  *  -0.17335359  *
     8       C         -0.29170568  *  -1.37357981  *  -0.29145103  *
     9       C          0.97626532  *  -0.70800095  *   0.01889429  *
    10       C          0.98378437  *   0.66302301  *   0.12235943  *
    11       C         -2.69058910  *  -1.41412773  *  -0.53779970  *
    12       C         -2.66639580  *  -2.74324726  *  -0.95022934  *
    13       C         -1.42296522  *  -3.38265782  *  -1.07779273  *
    14       C         -0.22759140  *  -2.70097705  *  -0.80335891  *
    15       C          1.06368502  *  -3.35345851  *  -1.09464989  *
    16       C          2.20562103  *  -2.79946732  *  -0.29135597  *
    17       C          2.15783421  *  -1.54868751  *   0.24256262  *
    18       C          2.14608812  *   1.51710423  *  -0.14298608  *
    19       C          2.24835603  *   2.71829466  *   0.48710174  *
    20       C          1.19090383  *   3.18933037  *   1.44864947  *
    21       O         -3.95439384  *   1.06098897  *   0.58257556  *
    22       O         -3.99048323  *  -0.96516697  *  -0.51329762  *
    23       O          1.41633531  *   4.00298131  *   2.31813753  *
    24       O          1.20472571  *  -4.24699324  *  -1.90177897  *
    25       O          3.33549176  *   3.48557654  *   0.15107510  *
    26       C          3.56100494  *   4.71270968  *   0.89795746  *
    27       O          3.32786562  *  -3.53493762  *  -0.00034947  *
    28       C          3.46973358  *  -4.83978622  *  -0.62623876  *
    29       C          3.23221052  *  -1.10747929  *   1.19354646  *
    30       C          2.93019002  *  -1.60986600  *   2.62386431  *
    31       C          4.11960252  *  -1.38585508  *   3.55473315  *
    32       O          1.77073874  *  -0.95702768  *   3.15503763  *
    33       C          3.11838319  *   1.13147918  *  -1.21798704  *
    34       C          2.65515541  *   1.67057606  *  -2.58964213  *
    35       C          3.73678423  *   1.49164376  *  -3.65201086  *
    36       O          1.45166669  *   1.01513263  *  -3.01207891  *
    37       C         -4.26588516  *   0.42402806  *  -0.65332163  *
    38       O         -1.13238686  *   4.35094369  *   2.39231234  *
    39       O         -1.32553625  *  -4.67659998  *  -1.47528956  *
    40       H         -3.47114726  *   3.12698347  *   1.80750029  *
    41       H         -3.60117300  *  -3.25147141  *  -1.17669072  *
    42       H          4.49252296  *   5.07147377  *   0.44638915  *
    43       H          3.67895200  *   4.49461815  *   1.96507866  *
    44       H          2.73488105  *   5.41155620  *   0.73648359  *
    45       H          4.44045825  *  -5.16249885  *  -0.23408403  *
    46       H          3.47947475  *  -4.74020426  *  -1.71724927  *
    47       H          2.66104389  *  -5.50394508  *  -0.30689321  *
    48       H          4.21216889  *  -1.52160494  *   0.86392207  *
    49       H          3.36358160  *  -0.00974578  *   1.20665366  *
    50       H          2.60594515  *  -2.67769865  *   2.61738599  *
    51       H          3.83300432  *  -1.59963461  *   4.59364475  *
    52       H          4.48662662  *  -0.35496757  *   3.52937654  *
    53       H          4.95870726  *  -2.04325452  *   3.30352420  *
    54       H          1.88944283  *   0.00903927  *   3.20193114  *
    55       H          4.12169142  *   1.55315240  *  -0.98189510  *
    56       H          3.26088537  *   0.03517142  *  -1.27479446  *
    57       H          2.32015389  *   2.73226644  *  -2.51565375  *
    58       H          3.33581583  *   1.73188107  *  -4.64621885  *
    59       H          4.11594066  *   0.46571804  *  -3.69885843  *
    60       H          4.59150044  *   2.15300247  *  -3.47377836  *
    61       H          1.57380950  *   0.05077601  *  -3.08390332  *
    62       H         -5.37298627  *   0.46002344  *  -0.69751457  *
    63       H         -3.72535277  *   0.86745939  *  -1.50303547  *
    64       H         -1.99763328  *   4.71528954  *   2.72657326  *
    65       H         -2.21376133  *  -5.08506393  *  -1.66623277  *

                             CARTESIAN COORDINATES

   1    C       -2.559977503     2.635677743     1.473721598
   2    C       -2.640391007     1.434441214     0.782392247
   3    C       -1.503246635     0.685332315     0.346158720
   4    C       -0.253608713     1.328460201     0.528654820
   5    C       -0.129537774     2.572169123     1.213922237
   6    C       -1.287009519     3.186498768     1.713654474
   7    C       -1.523275295    -0.672796937    -0.173353595
   8    C       -0.291705678    -1.373579810    -0.291451027
   9    C        0.976265316    -0.708000949     0.018894289
  10    C        0.983784374     0.663023010     0.122359430
  11    C       -2.690589095    -1.414127730    -0.537799698
  12    C       -2.666395803    -2.743247259    -0.950229339
  13    C       -1.422965215    -3.382657820    -1.077792734
  14    C       -0.227591398    -2.700977052    -0.803358911
  15    C        1.063685024    -3.353458515    -1.094649885
  16    C        2.205621026    -2.799467325    -0.291355967
  17    C        2.157834212    -1.548687506     0.242562625
  18    C        2.146088118     1.517104229    -0.142986082
  19    C        2.248356032     2.718294663     0.487101738
  20    C        1.190903828     3.189330373     1.448649472
  21    O       -3.954393843     1.060988972     0.582575560
  22    O       -3.990483235    -0.965166974    -0.513297620
  23    O        1.416335307     4.002981312     2.318137533
  24    O        1.204725706    -4.246993244    -1.901778965
  25    O        3.335491759     3.485576539     0.151075101
  26    C        3.561004936     4.712709676     0.897957460
  27    O        3.327865620    -3.534937618    -0.000349466
  28    C        3.469733584    -4.839786222    -0.626238758
  29    C        3.232210524    -1.107479289     1.193546460
  30    C        2.930190018    -1.609865998     2.623864312
  31    C        4.119602525    -1.385855080     3.554733150
  32    O        1.770738740    -0.957027677     3.155037627
  33    C        3.118383193     1.131479181    -1.217987039
  34    C        2.655155410     1.670576064    -2.589642127
  35    C        3.736784234     1.491643765    -3.652010855
  36    O        1.451666693     1.015132625    -3.012078914
  37    C       -4.265885161     0.424028055    -0.653321628
  38    O       -1.132386861     4.350943689     2.392312340
  39    O       -1.325536250    -4.676599984    -1.475289560
  40    H       -3.471147263     3.126983475     1.807500292
  41    H       -3.601173005    -3.251471406    -1.176690722
  42    H        4.492522958     5.071473771     0.446389155
  43    H        3.678952004     4.494618152     1.965078657
  44    H        2.734881048     5.411556195     0.736483585
  45    H        4.440458251    -5.162498851    -0.234084031
  46    H        3.479474750    -4.740204264    -1.717249268
  47    H        2.661043894    -5.503945083    -0.306893205
  48    H        4.212168889    -1.521604942     0.863922067
  49    H        3.363581596    -0.009745785     1.206653661
  50    H        2.605945146    -2.677698652     2.617385995
  51    H        3.833004324    -1.599634611     4.593644753
  52    H        4.486626620    -0.354967568     3.529376537
  53    H        4.958707256    -2.043254522     3.303524201
  54    H        1.889442829     0.009039270     3.201931137
  55    H        4.121691416     1.553152397    -0.981895102
  56    H        3.260885374     0.035171419    -1.274794464
  57    H        2.320153894     2.732266444    -2.515653749
  58    H        3.335815834     1.731881072    -4.646218851
  59    H        4.115940659     0.465718044    -3.698858434
  60    H        4.591500438     2.153002469    -3.473778360
  61    H        1.573809504     0.050776014    -3.083903318
  62    H       -5.372986268     0.460023436    -0.697514571
  63    H       -3.725352766     0.867459386    -1.503035474
  64    H       -1.997633278     4.715289538     2.726573256
  65    H       -2.213761326    -5.085063930    -1.666232767


           Empirical Formula: C29 H26 O10  =    65 atoms



      MOLECULAR POINT GROUP   :   C1  


                  EIGENVALUES  
 -32.19708 -32.08756 -32.03720 -31.71496 -31.66811 -31.16952 -31.06728 -30.64291
 -30.57866 -30.41393 -30.19220 -29.93613 -29.47813 -28.91496 -28.38818 -27.71210
 -27.19045 -26.91068 -26.37114 -26.32186 -25.79732 -25.68373 -24.92302 -24.84912
 -24.60850 -24.31704 -23.24879 -22.85665 -22.36137 -22.11234 -21.76922 -21.72102
 -21.20286 -21.12407 -19.90612 -19.77282 -19.48279 -19.21857 -18.60841 -18.09493
 -17.93499 -17.62735 -17.46513 -17.02825 -16.96476 -16.82477 -16.74177 -16.52133
 -16.41309 -16.23003 -16.08171 -16.00591 -15.92078 -15.80533 -15.67578 -15.58069
 -15.47603 -15.20580 -15.07513 -14.93573 -14.85251 -14.81145 -14.76046 -14.66784
 -14.51158 -14.34322 -14.29752 -14.23017 -14.15634 -14.06762 -13.89434 -13.80798
 -13.53039 -13.40462 -13.37016 -13.22436 -13.15406 -13.13582 -13.05987 -12.90253
 -12.77008 -12.74572 -12.60677 -12.46071 -12.36500 -12.29229 -12.07241 -11.79362
 -11.73649 -11.64821 -11.21431 -10.59528 -10.50248 -10.44630 -10.38569 -10.21080
 -10.16189  -9.77618  -9.29498  -8.83660  -8.46164  -1.95339  -0.88615  -0.47527
  -0.24960  -0.15616  -0.00316   0.67751   0.82452   0.87658   1.09994   1.33707
   1.43316   1.48099   1.65629   1.74722   1.80956   2.24210   2.47574   2.53615
   2.55120   2.66318   2.80705   2.91894   3.01061   3.03598   3.20423   3.27953
   3.40325   3.44018   3.51210   3.63522   3.64244   3.69260   3.76717   3.79187
   3.84312   3.90488   3.93553   3.94750   3.99163   4.00621   4.02002   4.05849
   4.12395   4.29551   4.31493   4.37760   4.42465   4.51860   4.60663   4.65726
   4.68772   4.72039   4.83181   4.87007   4.92870   4.96932   5.04609   5.22531
   5.28696   5.33682   5.37335   5.42161   5.42924   5.47525   5.56943   5.58468
   5.63787   5.64725   5.65339   5.72759   5.74819   5.82185   5.82519   5.86863
   6.06451   6.15323   6.21819   6.31246   6.66950   6.74002


              NET ATOMIC CHARGES AND DIPOLE CONTRIBUTIONS

  ATOM NO.   TYPE          CHARGE      No. of ELECS.   s-Pop       p-Pop       
    1          C          -0.525607        4.5256     1.11074     3.41487
    2          C           0.426247        3.5738     1.08761     2.48614
    3          C          -0.195836        4.1958     1.08111     3.11472
    4          C           0.205504        3.7945     1.08583     2.70866
    5          C          -0.440910        4.4409     1.09977     3.34114
    6          C           0.485472        3.5145     1.07236     2.44217
    7          C          -0.202377        4.2024     1.08068     3.12170
    8          C           0.215194        3.7848     1.08587     2.69894
    9          C          -0.007589        4.0076     1.09441     2.91318
   10          C          -0.001026        4.0010     1.09419     2.90684
   11          C           0.440638        3.5594     1.08740     2.47196
   12          C          -0.536318        4.5363     1.10915     3.42717
   13          C           0.493480        3.5065     1.07122     2.43530
   14          C          -0.449379        4.4494     1.09929     3.35009
   15          C           0.553981        3.4460     1.08970     2.35632
   16          C           0.043126        3.9569     1.12318     2.83369
   17          C          -0.041158        4.0412     1.08317     2.95799
   18          C          -0.043526        4.0435     1.08318     2.96035
   19          C           0.041845        3.9582     1.12331     2.83485
   20          C           0.550861        3.4491     1.09061     2.35853
   21          O          -0.401240        6.4012     1.83643     4.56481
   22          O          -0.400857        6.4009     1.83200     4.56885
   23          O          -0.464498        6.4645     1.85339     4.61111
   24          O          -0.467907        6.4679     1.85347     4.61443
   25          O          -0.343564        6.3436     1.84182     4.50174
   26          C          -0.183447        4.1834     1.10790     3.07555
   27          O          -0.343546        6.3435     1.84203     4.50151
   28          C          -0.183783        4.1838     1.10791     3.07587
   29          C          -0.359786        4.3598     1.09858     3.26121
   30          C           0.258686        3.7413     1.09217     2.64915
   31          C          -0.571668        4.5717     1.09775     3.47391
   32          O          -0.570727        6.5707     1.81639     4.75434
   33          C          -0.358521        4.3585     1.09836     3.26017
   34          C           0.258781        3.7412     1.09218     2.64904
   35          C          -0.571114        4.5711     1.09765     3.47346
   36          O          -0.574336        6.5743     1.81688     4.75746
   37          C           0.201156        3.7988     1.12805     2.67080
   38          O          -0.412218        6.4122     1.80686     4.60536
   39          O          -0.416779        6.4168     1.80632     4.61046
   40          H           0.207795        0.7922     0.79220
   41          H           0.208653        0.7913     0.79135
   42          H           0.151558        0.8484     0.84844
   43          H           0.157750        0.8422     0.84225
   44          H           0.148174        0.8518     0.85183
   45          H           0.151227        0.8488     0.84877
   46          H           0.157760        0.8422     0.84224
   47          H           0.148622        0.8514     0.85138
   48          H           0.173443        0.8266     0.82656
   49          H           0.165416        0.8346     0.83458
   50          H           0.140309        0.8597     0.85969
   51          H           0.176669        0.8233     0.82333
   52          H           0.162327        0.8377     0.83767
   53          H           0.167311        0.8327     0.83269
   54          H           0.310172        0.6898     0.68983
   55          H           0.174243        0.8258     0.82576
   56          H           0.166283        0.8337     0.83372
   57          H           0.139051        0.8609     0.86095
   58          H           0.176403        0.8236     0.82360
   59          H           0.163029        0.8370     0.83697
   60          H           0.167824        0.8322     0.83218
   61          H           0.310884        0.6891     0.68912
   62          H           0.174038        0.8260     0.82596
   63          H           0.136099        0.8639     0.86390
   64          H           0.328412        0.6716     0.67159
   65          H           0.329295        0.6707     0.67070
 DIPOLE           X         Y         Z       TOTAL
 POINT-CHG.    -0.175     1.250    -2.012     2.375
 HYBRID        -0.858    -0.140     0.380     0.949
 SUM           -1.033     1.111    -1.631     2.228


          ATOMIC ORBITAL ELECTRON POPULATIONS

     Atom    s        px        py        pz   
    1  C   1.11074   1.08653   1.09150   1.23685
    2  C   1.08761   0.77458   0.86599   0.84557
    3  C   1.08111   0.98201   0.98785   1.14487
    4  C   1.08583   0.93222   0.90181   0.87464
    5  C   1.09977   1.03219   1.08945   1.21950
    6  C   1.07236   0.90752   0.76363   0.77102
    7  C   1.08068   0.98254   0.98427   1.15489
    8  C   1.08587   0.92973   0.90388   0.86533
    9  C   1.09441   0.96390   0.96449   0.98479
   10  C   1.09419   0.96465   0.96528   0.97690
   11  C   1.08740   0.77546   0.88690   0.80960
   12  C   1.10915   1.09255   1.06608   1.26853
   13  C   1.07122   0.90937   0.75942   0.76651
   14  C   1.09929   1.02902   1.05434   1.26674
   15  C   1.08970   0.86360   0.74886   0.74386
   16  C   1.12318   0.88627   0.93591   1.01151
   17  C   1.08317   0.98137   0.95618   1.02044
   18  C   1.08318   0.98979   0.96074   1.00982
   19  C   1.12331   0.89252   0.93109   1.01124
   20  C   1.09061   0.85667   0.73494   0.76692
   21  O   1.83643   1.36026   1.74638   1.45817
   22  O   1.83200   1.36551   1.36107   1.84228
   23  O   1.85339   1.82642   1.38283   1.40186
   24  O   1.85347   1.85131   1.36938   1.39374
   25  O   1.84182   1.48293   1.40629   1.61252
   26  C   1.10790   1.12899   0.86849   1.07807
   27  O   1.84203   1.44719   1.36846   1.68586
   28  C   1.10791   1.13628   0.83494   1.10465
   29  C   1.09858   1.07909   1.15436   1.02776
   30  C   1.09217   0.79968   0.99040   0.85907
   31  C   1.09775   1.12457   1.18889   1.16046
   32  O   1.81639   1.50898   1.36680   1.87855
   33  C   1.09836   1.08962   1.15619   1.01436
   34  C   1.09218   0.79284   0.98746   0.86874
   35  C   1.09765   1.13603   1.19068   1.14676
   36  O   1.81688   1.47666   1.36894   1.91185
   37  C   1.12805   1.07258   0.74176   0.85646
   38  O   1.80686   1.47696   1.43793   1.69047
   39  O   1.80632   1.47012   1.34146   1.79888
   40  H   0.79220
   41  H   0.79135
   42  H   0.84844
   43  H   0.84225
   44  H   0.85183
   45  H   0.84877
   46  H   0.84224
   47  H   0.85138
   48  H   0.82656
   49  H   0.83458
   50  H   0.85969
   51  H   0.82333
   52  H   0.83767
   53  H   0.83269
   54  H   0.68983
   55  H   0.82576
   56  H   0.83372
   57  H   0.86095
   58  H   0.82360
   59  H   0.83697
   60  H   0.83218
   61  H   0.68912
   62  H   0.82596
   63  H   0.86390
   64  H   0.67159
   65  H   0.67070

 **********************
 *                    *
 * JOB ENDED NORMALLY *
 *                    *
 **********************



 TOTAL JOB TIME:            33.41 SECONDS

 == MOPAC DONE ==
