 *******************************************************************************
 ** Site#: 35412        For non-commercial use only    Version 20.225L 64BITS **
 *******************************************************************************
 ** Cite this program as: MOPAC2016, Version: 20.225L, James J. P. Stewart,   **
 ** Stewart Computational Chemistry, web: HTTP://OpenMOPAC.net. Days left: 364**
 *******************************************************************************
 **                                                                           **
 **                                MOPAC2016                                  **
 **                                                                           **
 *******************************************************************************

                              PM6 CALCULATION RESULTS

 *******************************************************************************
 *  CALCULATION DONE:                                Fri Aug 14 20:41:14 2020  *
 *  PM6        - The PM6 Hamiltonian to be used
 *  SINGLET    - SPIN STATE DEFINED AS A SINGLET
 *  OPT        - OPTIMIZE COORDINATES OF ALL ATOMS
 *
 *
 *
 *                 CHARGE ON SYSTEM = 0
 *
 *
 *
 *  PRECISE    - CRITERIA TO BE INCREASED BY 100 TIMES
 *  T=         - A TIME OF 172800.0 SECONDS REQUESTED
 *  DUMP=N     - RESTART FILE WRITTEN EVERY 7200.0 SECONDS REQUESTED
 *  AUX        - OUTPUT AUXILIARY INFORMATION
 *  PRTXYZ     - PRINT CARTESIAN COORDINATES
 *  LARGE      - EXPANDED OUTPUT TO BE PRINTED
 *******************************************************************************
 AUX LARGE CHARGE=0 SINGLET  PM6  OPT PRECISE PRTXYZ
 CN277.pdb
 42
   ATOM   CHEMICAL          X               Y               Z
  NUMBER   SYMBOL      (ANGSTROMS)     (ANGSTROMS)     (ANGSTROMS)
 
     1       C         -1.48300000  *  -0.42300000  *   0.97200000  *
     2       C         -1.84000000  *   0.94900000  *   0.28400000  *
     3       C         -2.60400000  *   0.77900000  *  -1.10600000  *
     4       C         -0.56100000  *  -1.23300000  *   0.06100000  *
     5       C          0.73900000  *  -0.40100000  *  -0.28800000  *
     6       C          0.73900000  *   0.95700000  *  -0.31800000  *
     7       C         -0.54500000  *   1.71100000  *  -0.01000000  *
     8       O         -0.58100000  *   2.95000000  *  -0.02600000  *
     9       O          2.03100000  *   1.63400000  *  -0.66600000  *
    10       C          2.10000000  *   3.12400000  *  -0.73300000  *
    11       C          2.05600000  *  -1.10200000  *  -0.62700000  *
    12       C          2.74300000  *  -1.49500000  *   0.71800000  *
    13       C          4.13100000  *  -2.15100000  *   0.49900000  *
    14       O         -2.64800000  *  -1.22700000  *   1.28100000  *
    15       C          1.81500000  *  -2.37400000  *  -1.50900000  *
    16       C         -2.71900000  *   1.79400000  *   1.22000000  *
    17       C         -3.97500000  *   0.04700000  *  -1.01900000  *
    18       O         -0.25200000  *  -2.47200000  *   0.71600000  *
    19       H         -0.95200000  *  -0.20800000  *   1.91100000  *
    20       H         -2.78100000  *   1.77800000  *  -1.51700000  *
    21       H         -1.96500000  *   0.22000000  *  -1.80000000  *
    22       H         -1.08700000  *  -1.46900000  *  -0.87800000  *
    23       H          3.12500000  *   3.42600000  *  -0.99500000  *
    24       H          1.83500000  *   3.55800000  *   0.24500000  *
    25       H          1.40600000  *   3.50300000  *  -1.50200000  *
    26       H          2.71500000  *  -0.39600000  *  -1.14700000  *
    27       H          2.87800000  *  -0.58400000  *   1.31700000  *
    28       H          2.09700000  *  -2.19600000  *   1.26600000  *
    29       H          4.57700000  *  -2.38800000  *   1.47600000  *
    30       H          4.78400000  *  -1.45100000  *  -0.03800000  *
    31       H          4.02900000  *  -3.07400000  *  -0.08300000  *
    32       H         -3.24600000  *  -0.73800000  *   1.90100000  *
    33       H          2.77500000  *  -2.85100000  *  -1.75500000  *
    34       H          1.31300000  *  -2.07700000  *  -2.44100000  *
    35       H          1.18700000  *  -3.09500000  *  -0.97200000  *
    36       H         -2.93400000  *   2.75600000  *   0.74000000  *
    37       H         -2.18100000  *   1.96400000  *   2.16200000  *
    38       H         -3.65900000  *   1.26800000  *   1.43000000  *
    39       H         -4.41300000  *  -0.01300000  *  -2.02200000  *
    40       H         -4.65700000  *   0.59700000  *  -0.35900000  *
    41       H         -3.83100000  *  -0.96800000  *  -0.62900000  *
    42       H          0.19300000  *  -2.25100000  *   1.56700000  *
 


          CARTESIAN COORDINATES 

    NO.       ATOM           X           Y           Z

     1         C         -1.4830     -0.4230      0.9720
     2         C         -1.8400      0.9490      0.2840
     3         C         -2.6040      0.7790     -1.1060
     4         C         -0.5610     -1.2330      0.0610
     5         C          0.7390     -0.4010     -0.2880
     6         C          0.7390      0.9570     -0.3180
     7         C         -0.5450      1.7110     -0.0100
     8         O         -0.5810      2.9500     -0.0260
     9         O          2.0310      1.6340     -0.6660
    10         C          2.1000      3.1240     -0.7330
    11         C          2.0560     -1.1020     -0.6270
    12         C          2.7430     -1.4950      0.7180
    13         C          4.1310     -2.1510      0.4990
    14         O         -2.6480     -1.2270      1.2810
    15         C          1.8150     -2.3740     -1.5090
    16         C         -2.7190      1.7940      1.2200
    17         C         -3.9750      0.0470     -1.0190
    18         O         -0.2520     -2.4720      0.7160
    19         H         -0.9520     -0.2080      1.9110
    20         H         -2.7810      1.7780     -1.5170
    21         H         -1.9650      0.2200     -1.8000
    22         H         -1.0870     -1.4690     -0.8780
    23         H          3.1250      3.4260     -0.9950
    24         H          1.8350      3.5580      0.2450
    25         H          1.4060      3.5030     -1.5020
    26         H          2.7150     -0.3960     -1.1470
    27         H          2.8780     -0.5840      1.3170
    28         H          2.0970     -2.1960      1.2660
    29         H          4.5770     -2.3880      1.4760
    30         H          4.7840     -1.4510     -0.0380
    31         H          4.0290     -3.0740     -0.0830
    32         H         -3.2460     -0.7380      1.9010
    33         H          2.7750     -2.8510     -1.7550
    34         H          1.3130     -2.0770     -2.4410
    35         H          1.1870     -3.0950     -0.9720
    36         H         -2.9340      2.7560      0.7400
    37         H         -2.1810      1.9640      2.1620
    38         H         -3.6590      1.2680      1.4300
    39         H         -4.4130     -0.0130     -2.0220
    40         H         -4.6570      0.5970     -0.3590
    41         H         -3.8310     -0.9680     -0.6290
    42         H          0.1930     -2.2510      1.5670

 General Reference for PM6:
 "Optimization of Parameters for Semiempirical Methods V: Modification of NDDO Approximations
 and Application to 70 Elements", J. J. P. Stewart, J. Mol. Mod., 13, 1173-1213 (2007)
 URL: https://link.springer.com/article/10.1007/s00894-007-0233-4

           Empirical Formula: C14 H24 O4  =    42 atoms



      MOLECULAR POINT GROUP   :   C1  


 SINGLET STATE CALCULATION


      RHF CALCULATION, NO. OF DOUBLY OCCUPIED LEVELS = 52


          Geometry optimization using L-BFGS
 CYCLE:     1 TIME:   0.047 TIME LEFT:  2.00D  GRAD.:   146.056 HEAT: -163.2679
 CYCLE:     2 TIME:   0.039 TIME LEFT:  2.00D  GRAD.:   143.826 HEAT: -163.4796
 CYCLE:     3 TIME:   0.039 TIME LEFT:  2.00D  GRAD.:    58.637 HEAT: -173.1018
 CYCLE:     4 TIME:   0.031 TIME LEFT:  2.00D  GRAD.:   143.846 HEAT: -163.4798
 CYCLE:     5 TIME:   0.031 TIME LEFT:  2.00D  GRAD.:    58.654 HEAT: -173.1017
 CYCLE:     6 TIME:   0.055 TIME LEFT:  2.00D  GRAD.:    48.347 HEAT: -174.8514
 CYCLE:     7 TIME:   0.031 TIME LEFT:  2.00D  GRAD.:    61.165 HEAT: -179.1785
 CYCLE:     8 TIME:   0.039 TIME LEFT:  2.00D  GRAD.:   119.796 HEAT: -178.5200
 CYCLE:     9 TIME:   0.023 TIME LEFT:  2.00D  GRAD.:    37.309 HEAT: -180.7866
 CYCLE:    10 TIME:   0.031 TIME LEFT:  2.00D  GRAD.:    19.376 HEAT: -181.2203
 CYCLE:    11 TIME:   0.023 TIME LEFT:  2.00D  GRAD.:    20.867 HEAT: -181.7840
 CYCLE:    12 TIME:   0.031 TIME LEFT:  2.00D  GRAD.:    15.401 HEAT: -182.0901
 CYCLE:    13 TIME:   0.023 TIME LEFT:  2.00D  GRAD.:    16.265 HEAT: -182.3508
 CYCLE:    14 TIME:   0.023 TIME LEFT:  2.00D  GRAD.:    21.222 HEAT: -182.4374
 CYCLE:    15 TIME:   0.031 TIME LEFT:  2.00D  GRAD.:     8.132 HEAT: -182.5459
 CYCLE:    16 TIME:   0.023 TIME LEFT:  2.00D  GRAD.:     6.710 HEAT: -182.5882
 CYCLE:    17 TIME:   0.023 TIME LEFT:  2.00D  GRAD.:     8.154 HEAT: -182.6697
 CYCLE:    18 TIME:   0.023 TIME LEFT:  2.00D  GRAD.:    11.425 HEAT: -182.7464
 CYCLE:    19 TIME:   0.023 TIME LEFT:  2.00D  GRAD.:     5.744 HEAT: -182.8111
 CYCLE:    20 TIME:   0.031 TIME LEFT:  2.00D  GRAD.:     4.316 HEAT: -182.8494
 CYCLE:    21 TIME:   0.031 TIME LEFT:  2.00D  GRAD.:     4.554 HEAT: -182.8930
 CYCLE:    22 TIME:   0.031 TIME LEFT:  2.00D  GRAD.:     6.054 HEAT: -182.9314
 CYCLE:    23 TIME:   0.023 TIME LEFT:  2.00D  GRAD.:     7.252 HEAT: -182.9675
 CYCLE:    24 TIME:   0.023 TIME LEFT:  2.00D  GRAD.:     8.356 HEAT: -182.9922
 CYCLE:    25 TIME:   0.031 TIME LEFT:  2.00D  GRAD.:     6.377 HEAT: -183.0166
 CYCLE:    26 TIME:   0.023 TIME LEFT:  2.00D  GRAD.:     4.925 HEAT: -183.0591
 CYCLE:    27 TIME:   0.023 TIME LEFT:  2.00D  GRAD.:     5.619 HEAT: -183.1050
 CYCLE:    28 TIME:   0.023 TIME LEFT:  2.00D  GRAD.:     6.447 HEAT: -183.1432
 CYCLE:    29 TIME:   0.031 TIME LEFT:  2.00D  GRAD.:     4.535 HEAT: -183.1742
 CYCLE:    30 TIME:   0.023 TIME LEFT:  2.00D  GRAD.:     3.684 HEAT: -183.1933
 CYCLE:    31 TIME:   0.031 TIME LEFT:  2.00D  GRAD.:     5.625 HEAT: -183.2112
 CYCLE:    32 TIME:   0.023 TIME LEFT:  2.00D  GRAD.:     4.453 HEAT: -183.2305
 CYCLE:    33 TIME:   0.031 TIME LEFT:  2.00D  GRAD.:     4.235 HEAT: -183.2548
 CYCLE:    34 TIME:   0.031 TIME LEFT:  2.00D  GRAD.:     3.762 HEAT: -183.2800
 CYCLE:    35 TIME:   0.023 TIME LEFT:  2.00D  GRAD.:     9.005 HEAT: -183.2811
 CYCLE:    36 TIME:   0.031 TIME LEFT:  2.00D  GRAD.:     2.406 HEAT: -183.3055
 CYCLE:    37 TIME:   0.031 TIME LEFT:  2.00D  GRAD.:     1.868 HEAT: -183.3102
 CYCLE:    38 TIME:   0.023 TIME LEFT:  2.00D  GRAD.:     2.143 HEAT: -183.3184
 CYCLE:    39 TIME:   0.031 TIME LEFT:  2.00D  GRAD.:     8.400 HEAT: -183.3175
 CYCLE:    40 TIME:   0.031 TIME LEFT:  2.00D  GRAD.:     2.259 HEAT: -183.3280
 CYCLE:    41 TIME:   0.023 TIME LEFT:  2.00D  GRAD.:     1.537 HEAT: -183.3306
 CYCLE:    42 TIME:   0.023 TIME LEFT:  2.00D  GRAD.:     1.817 HEAT: -183.3344
 CYCLE:    43 TIME:   0.031 TIME LEFT:  2.00D  GRAD.:     1.876 HEAT: -183.3394
 CYCLE:    44 TIME:   0.039 TIME LEFT:  2.00D  GRAD.:     3.755 HEAT: -183.3442
 CYCLE:    45 TIME:   0.031 TIME LEFT:  2.00D  GRAD.:     2.370 HEAT: -183.3499
 CYCLE:    46 TIME:   0.039 TIME LEFT:  2.00D  GRAD.:     1.515 HEAT: -183.3527
 CYCLE:    47 TIME:   0.023 TIME LEFT:  2.00D  GRAD.:     1.710 HEAT: -183.3562
 CYCLE:    48 TIME:   0.031 TIME LEFT:  2.00D  GRAD.:     3.443 HEAT: -183.3596
 CYCLE:    49 TIME:   0.031 TIME LEFT:  2.00D  GRAD.:     2.440 HEAT: -183.3642
 CYCLE:    50 TIME:   0.023 TIME LEFT:  2.00D  GRAD.:     2.051 HEAT: -183.3717
 CYCLE:    51 TIME:   0.023 TIME LEFT:  2.00D  GRAD.:     2.850 HEAT: -183.3799
 CYCLE:    52 TIME:   0.031 TIME LEFT:  2.00D  GRAD.:     3.796 HEAT: -183.3896
 CYCLE:    53 TIME:   0.023 TIME LEFT:  2.00D  GRAD.:     4.940 HEAT: -183.4010
 CYCLE:    54 TIME:   0.031 TIME LEFT:  2.00D  GRAD.:     5.759 HEAT: -183.4119
 CYCLE:    55 TIME:   0.023 TIME LEFT:  2.00D  GRAD.:     7.566 HEAT: -183.4208
 CYCLE:    56 TIME:   0.031 TIME LEFT:  2.00D  GRAD.:     8.174 HEAT: -183.4279
 CYCLE:    57 TIME:   0.023 TIME LEFT:  2.00D  GRAD.:    10.885 HEAT: -183.4323
 CYCLE:    58 TIME:   0.031 TIME LEFT:  2.00D  GRAD.:    27.890 HEAT: -183.3536
 CYCLE:    59 TIME:   0.023 TIME LEFT:  2.00D  GRAD.:    79.851 HEAT: -182.1426
 CYCLE:    60 TIME:   0.031 TIME LEFT:  2.00D  GRAD.:    78.211 HEAT: -182.2798
 CYCLE:    61 TIME:   0.023 TIME LEFT:  2.00D  GRAD.:   118.862 HEAT: -180.3324
 CYCLE:    62 TIME:   0.031 TIME LEFT:  2.00D  GRAD.:    60.682 HEAT: -182.7284
 CYCLE:    63 TIME:   0.031 TIME LEFT:  2.00D  GRAD.:    48.871 HEAT: -183.0627
 CYCLE:    64 TIME:   0.031 TIME LEFT:  2.00D  GRAD.:   151.102 HEAT: -176.6714
 CYCLE:    65 TIME:   0.031 TIME LEFT:  2.00D  GRAD.:    32.946 HEAT: -183.2464
 CYCLE:    66 TIME:   0.031 TIME LEFT:  2.00D  GRAD.:    12.731 HEAT: -183.4562
 CYCLE:    67 TIME:   0.031 TIME LEFT:  2.00D  GRAD.:    67.370 HEAT: -181.5562
 CYCLE:    68 TIME:   0.031 TIME LEFT:  2.00D  GRAD.:    37.718 HEAT: -182.8352
 CYCLE:    69 TIME:   0.023 TIME LEFT:  2.00D  GRAD.:    11.451 HEAT: -183.4850
 CYCLE:    70 TIME:   0.031 TIME LEFT:  2.00D  GRAD.:    38.670 HEAT: -182.6550
 CYCLE:    71 TIME:   0.023 TIME LEFT:  2.00D  GRAD.:    11.836 HEAT: -183.4350
 CYCLE:    72 TIME:   0.023 TIME LEFT:  2.00D  GRAD.:   101.526 HEAT: -180.1025
 CYCLE:    73 TIME:   0.023 TIME LEFT:  2.00D  GRAD.:    55.269 HEAT: -182.6669
 CYCLE:    74 TIME:   0.031 TIME LEFT:  2.00D  GRAD.:    27.344 HEAT: -183.4351
 CYCLE:    75 TIME:   0.023 TIME LEFT:  2.00D  GRAD.:   125.324 HEAT: -180.4346
 CYCLE:    76 TIME:   0.031 TIME LEFT:  2.00D  GRAD.:     6.364 HEAT: -183.5367
 CYCLE:    77 TIME:   0.023 TIME LEFT:  2.00D  GRAD.:     7.657 HEAT: -183.5403
 CYCLE:    78 TIME:   0.031 TIME LEFT:  2.00D  GRAD.:     5.242 HEAT: -183.5559
 CYCLE:    79 TIME:   0.031 TIME LEFT:  2.00D  GRAD.:     4.279 HEAT: -183.5584
 CYCLE:    80 TIME:   0.031 TIME LEFT:  2.00D  GRAD.:     2.103 HEAT: -183.5677
 CYCLE:    81 TIME:   0.039 TIME LEFT:  2.00D  GRAD.:     2.419 HEAT: -183.5736
 CYCLE:    82 TIME:   0.039 TIME LEFT:  2.00D  GRAD.:     3.545 HEAT: -183.5852
 CYCLE:    83 TIME:   0.031 TIME LEFT:  2.00D  GRAD.:     6.055 HEAT: -183.6016
 CYCLE:    84 TIME:   0.023 TIME LEFT:  2.00D  GRAD.:     4.693 HEAT: -183.6276
 CYCLE:    85 TIME:   0.031 TIME LEFT:  2.00D  GRAD.:     4.279 HEAT: -183.6577
 CYCLE:    86 TIME:   0.031 TIME LEFT:  2.00D  GRAD.:     5.329 HEAT: -183.7016
 CYCLE:    87 TIME:   0.023 TIME LEFT:  2.00D  GRAD.:     6.463 HEAT: -183.7438
 CYCLE:    88 TIME:   0.023 TIME LEFT:  2.00D  GRAD.:     7.553 HEAT: -183.7775
 CYCLE:    89 TIME:   0.023 TIME LEFT:  2.00D  GRAD.:     3.404 HEAT: -183.8067
 CYCLE:    90 TIME:   0.031 TIME LEFT:  2.00D  GRAD.:     5.285 HEAT: -183.8101
 CYCLE:    91 TIME:   0.031 TIME LEFT:  2.00D  GRAD.:     4.548 HEAT: -183.8256
 CYCLE:    92 TIME:   0.023 TIME LEFT:  2.00D  GRAD.:     2.470 HEAT: -183.8319
 CYCLE:    93 TIME:   0.031 TIME LEFT:  2.00D  GRAD.:     2.059 HEAT: -183.8386
 CYCLE:    94 TIME:   0.031 TIME LEFT:  2.00D  GRAD.:     3.628 HEAT: -183.8460
 CYCLE:    95 TIME:   0.031 TIME LEFT:  2.00D  GRAD.:     2.495 HEAT: -183.8533
 CYCLE:    96 TIME:   0.031 TIME LEFT:  2.00D  GRAD.:     4.270 HEAT: -183.8599
 CYCLE:    97 TIME:   0.023 TIME LEFT:  2.00D  GRAD.:     2.751 HEAT: -183.8672
 CYCLE:    98 TIME:   0.023 TIME LEFT:  2.00D  GRAD.:     2.338 HEAT: -183.8714
 CYCLE:    99 TIME:   0.031 TIME LEFT:  2.00D  GRAD.:     1.675 HEAT: -183.8817
 CYCLE:   100 TIME:   0.023 TIME LEFT:  2.00D  GRAD.:     4.385 HEAT: -183.8844
 CYCLE:   101 TIME:   0.031 TIME LEFT:  2.00D  GRAD.:     1.819 HEAT: -183.8914
 CYCLE:   102 TIME:   0.023 TIME LEFT:  2.00D  GRAD.:     1.686 HEAT: -183.8955
 CYCLE:   103 TIME:   0.031 TIME LEFT:  2.00D  GRAD.:     2.191 HEAT: -183.9030
 CYCLE:   104 TIME:   0.023 TIME LEFT:  2.00D  GRAD.:     2.888 HEAT: -183.9128
 CYCLE:   105 TIME:   0.023 TIME LEFT:  2.00D  GRAD.:     5.242 HEAT: -183.9183
 CYCLE:   106 TIME:   0.031 TIME LEFT:  2.00D  GRAD.:     2.114 HEAT: -183.9271
 CYCLE:   107 TIME:   0.023 TIME LEFT:  2.00D  GRAD.:     1.931 HEAT: -183.9318
 CYCLE:   108 TIME:   0.031 TIME LEFT:  2.00D  GRAD.:     2.228 HEAT: -183.9398
 CYCLE:   109 TIME:   0.023 TIME LEFT:  2.00D  GRAD.:     4.009 HEAT: -183.9464
 CYCLE:   110 TIME:   0.023 TIME LEFT:  2.00D  GRAD.:     3.369 HEAT: -183.9557
 CYCLE:   111 TIME:   0.031 TIME LEFT:  2.00D  GRAD.:     2.415 HEAT: -183.9640
 CYCLE:   112 TIME:   0.023 TIME LEFT:  2.00D  GRAD.:     3.464 HEAT: -183.9733
 CYCLE:   113 TIME:   0.031 TIME LEFT:  2.00D  GRAD.:     6.246 HEAT: -183.9764
 CYCLE:   114 TIME:   0.031 TIME LEFT:  2.00D  GRAD.:     2.982 HEAT: -183.9842
 CYCLE:   115 TIME:   0.023 TIME LEFT:  2.00D  GRAD.:     2.272 HEAT: -183.9920
 CYCLE:   116 TIME:   0.031 TIME LEFT:  2.00D  GRAD.:     2.547 HEAT: -183.9979
 CYCLE:   117 TIME:   0.031 TIME LEFT:  2.00D  GRAD.:     2.455 HEAT: -184.0070
 CYCLE:   118 TIME:   0.039 TIME LEFT:  2.00D  GRAD.:     3.302 HEAT: -184.0132
 CYCLE:   119 TIME:   0.047 TIME LEFT:  2.00D  GRAD.:     1.589 HEAT: -184.0183
 CYCLE:   120 TIME:   0.031 TIME LEFT:  2.00D  GRAD.:     1.759 HEAT: -184.0220
 CYCLE:   121 TIME:   0.023 TIME LEFT:  2.00D  GRAD.:     2.152 HEAT: -184.0257
 CYCLE:   122 TIME:   0.031 TIME LEFT:  2.00D  GRAD.:     3.307 HEAT: -184.0286
 CYCLE:   123 TIME:   0.023 TIME LEFT:  2.00D  GRAD.:     1.897 HEAT: -184.0336
 CYCLE:   124 TIME:   0.023 TIME LEFT:  2.00D  GRAD.:     1.530 HEAT: -184.0359
 CYCLE:   125 TIME:   0.023 TIME LEFT:  2.00D  GRAD.:     1.390 HEAT: -184.0378
 CYCLE:   126 TIME:   0.023 TIME LEFT:  2.00D  GRAD.:     1.601 HEAT: -184.0422
 CYCLE:   127 TIME:   0.031 TIME LEFT:  2.00D  GRAD.:     2.952 HEAT: -184.0474
 CYCLE:   128 TIME:   0.023 TIME LEFT:  2.00D  GRAD.:     2.659 HEAT: -184.0533
 CYCLE:   129 TIME:   0.031 TIME LEFT:  2.00D  GRAD.:     2.169 HEAT: -184.0581
 CYCLE:   130 TIME:   0.023 TIME LEFT:  2.00D  GRAD.:     1.652 HEAT: -184.0613
 CYCLE:   131 TIME:   0.023 TIME LEFT:  2.00D  GRAD.:     1.452 HEAT: -184.0654
 CYCLE:   132 TIME:   0.031 TIME LEFT:  2.00D  GRAD.:     3.679 HEAT: -184.0676
 CYCLE:   133 TIME:   0.023 TIME LEFT:  2.00D  GRAD.:     1.262 HEAT: -184.0722
 CYCLE:   134 TIME:   0.023 TIME LEFT:  2.00D  GRAD.:     1.060 HEAT: -184.0738
 CYCLE:   135 TIME:   0.023 TIME LEFT:  2.00D  GRAD.:     1.289 HEAT: -184.0764
 CYCLE:   136 TIME:   0.031 TIME LEFT:  2.00D  GRAD.:     1.728 HEAT: -184.0806
 CYCLE:   137 TIME:   0.023 TIME LEFT:  2.00D  GRAD.:     5.546 HEAT: -184.0799
 CYCLE:   138 TIME:   0.031 TIME LEFT:  2.00D  GRAD.:     1.551 HEAT: -184.0862
 CYCLE:   139 TIME:   0.023 TIME LEFT:  2.00D  GRAD.:     1.271 HEAT: -184.0877
 CYCLE:   140 TIME:   0.031 TIME LEFT:  2.00D  GRAD.:     1.760 HEAT: -184.0921
 CYCLE:   141 TIME:   0.031 TIME LEFT:  2.00D  GRAD.:     3.615 HEAT: -184.0961
 CYCLE:   142 TIME:   0.023 TIME LEFT:  2.00D  GRAD.:     2.532 HEAT: -184.1018
 CYCLE:   143 TIME:   0.023 TIME LEFT:  2.00D  GRAD.:     2.517 HEAT: -184.1073
 CYCLE:   144 TIME:   0.023 TIME LEFT:  2.00D  GRAD.:     3.581 HEAT: -184.1105
 CYCLE:   145 TIME:   0.031 TIME LEFT:  2.00D  GRAD.:     1.995 HEAT: -184.1135
 CYCLE:   146 TIME:   0.023 TIME LEFT:  2.00D  GRAD.:     1.578 HEAT: -184.1175
 CYCLE:   147 TIME:   0.031 TIME LEFT:  2.00D  GRAD.:     2.176 HEAT: -184.1218
 CYCLE:   148 TIME:   0.023 TIME LEFT:  2.00D  GRAD.:     1.689 HEAT: -184.1264
 CYCLE:   149 TIME:   0.023 TIME LEFT:  2.00D  GRAD.:     2.954 HEAT: -184.1278
 CYCLE:   150 TIME:   0.031 TIME LEFT:  2.00D  GRAD.:     0.923 HEAT: -184.1312
 CYCLE:   151 TIME:   0.023 TIME LEFT:  2.00D  GRAD.:     1.019 HEAT: -184.1327
 CYCLE:   152 TIME:   0.031 TIME LEFT:  2.00D  GRAD.:     1.264 HEAT: -184.1352
 CYCLE:   153 TIME:   0.023 TIME LEFT:  2.00D  GRAD.:     1.850 HEAT: -184.1382
 CYCLE:   154 TIME:   0.031 TIME LEFT:  2.00D  GRAD.:     1.516 HEAT: -184.1415
 CYCLE:   155 TIME:   0.031 TIME LEFT:  2.00D  GRAD.:     1.918 HEAT: -184.1433
 CYCLE:   156 TIME:   0.047 TIME LEFT:  2.00D  GRAD.:     1.248 HEAT: -184.1450
 CYCLE:   157 TIME:   0.039 TIME LEFT:  2.00D  GRAD.:     1.143 HEAT: -184.1467
 CYCLE:   158 TIME:   0.023 TIME LEFT:  2.00D  GRAD.:     2.473 HEAT: -184.1499
 CYCLE:   159 TIME:   0.023 TIME LEFT:  2.00D  GRAD.:     1.882 HEAT: -184.1521
 CYCLE:   160 TIME:   0.023 TIME LEFT:  2.00D  GRAD.:     0.991 HEAT: -184.1536
 CYCLE:   161 TIME:   0.023 TIME LEFT:  2.00D  GRAD.:     0.870 HEAT: -184.1546
 CYCLE:   162 TIME:   0.031 TIME LEFT:  2.00D  GRAD.:     1.213 HEAT: -184.1562
 CYCLE:   163 TIME:   0.039 TIME LEFT:  2.00D  GRAD.:     1.180 HEAT: -184.1587
 CYCLE:   164 TIME:   0.023 TIME LEFT:  2.00D  GRAD.:     1.602 HEAT: -184.1600
 CYCLE:   165 TIME:   0.031 TIME LEFT:  2.00D  GRAD.:     0.926 HEAT: -184.1613
 CYCLE:   166 TIME:   0.023 TIME LEFT:  2.00D  GRAD.:     0.851 HEAT: -184.1627
 CYCLE:   167 TIME:   0.023 TIME LEFT:  2.00D  GRAD.:     1.016 HEAT: -184.1640
 CYCLE:   168 TIME:   0.023 TIME LEFT:  2.00D  GRAD.:     1.918 HEAT: -184.1658
 CYCLE:   169 TIME:   0.023 TIME LEFT:  2.00D  GRAD.:     0.990 HEAT: -184.1680
 CYCLE:   170 TIME:   0.031 TIME LEFT:  2.00D  GRAD.:     0.843 HEAT: -184.1693
 CYCLE:   171 TIME:   0.023 TIME LEFT:  2.00D  GRAD.:     1.226 HEAT: -184.1711
 CYCLE:   172 TIME:   0.023 TIME LEFT:  2.00D  GRAD.:     2.895 HEAT: -184.1715
 CYCLE:   173 TIME:   0.023 TIME LEFT:  2.00D  GRAD.:     1.012 HEAT: -184.1732
 CYCLE:   174 TIME:   0.023 TIME LEFT:  2.00D  GRAD.:     0.918 HEAT: -184.1742
 CYCLE:   175 TIME:   0.023 TIME LEFT:  2.00D  GRAD.:     1.205 HEAT: -184.1756
 CYCLE:   176 TIME:   0.031 TIME LEFT:  2.00D  GRAD.:     1.296 HEAT: -184.1780
 CYCLE:   177 TIME:   0.023 TIME LEFT:  2.00D  GRAD.:     2.446 HEAT: -184.1799
 CYCLE:   178 TIME:   0.023 TIME LEFT:  2.00D  GRAD.:     1.293 HEAT: -184.1828
 CYCLE:   179 TIME:   0.023 TIME LEFT:  2.00D  GRAD.:     1.568 HEAT: -184.1845
 CYCLE:   180 TIME:   0.031 TIME LEFT:  2.00D  GRAD.:     1.293 HEAT: -184.1860
 CYCLE:   181 TIME:   0.031 TIME LEFT:  2.00D  GRAD.:     1.574 HEAT: -184.1879
 CYCLE:   182 TIME:   0.023 TIME LEFT:  2.00D  GRAD.:     1.740 HEAT: -184.1901
 CYCLE:   183 TIME:   0.023 TIME LEFT:  2.00D  GRAD.:     1.116 HEAT: -184.1918
 CYCLE:   184 TIME:   0.031 TIME LEFT:  2.00D  GRAD.:     1.045 HEAT: -184.1934
 CYCLE:   185 TIME:   0.023 TIME LEFT:  2.00D  GRAD.:     1.325 HEAT: -184.1954
 CYCLE:   186 TIME:   0.031 TIME LEFT:  2.00D  GRAD.:     1.874 HEAT: -184.1981
 CYCLE:   187 TIME:   0.023 TIME LEFT:  2.00D  GRAD.:     2.858 HEAT: -184.1995
 CYCLE:   188 TIME:   0.023 TIME LEFT:  2.00D  GRAD.:     0.987 HEAT: -184.2015
 CYCLE:   189 TIME:   0.023 TIME LEFT:  2.00D  GRAD.:     0.948 HEAT: -184.2023
 CYCLE:   190 TIME:   0.016 TIME LEFT:  2.00D  GRAD.:     1.100 HEAT: -184.2034
 CYCLE:   191 TIME:   0.039 TIME LEFT:  2.00D  GRAD.:     1.455 HEAT: -184.2052
 CYCLE:   192 TIME:   0.023 TIME LEFT:  2.00D  GRAD.:     3.351 HEAT: -184.2046
 CYCLE:   193 TIME:   0.023 TIME LEFT:  2.00D  GRAD.:     0.778 HEAT: -184.2074
 CYCLE:   194 TIME:   0.031 TIME LEFT:  2.00D  GRAD.:     0.680 HEAT: -184.2080
 CYCLE:   195 TIME:   0.047 TIME LEFT:  2.00D  GRAD.:     1.857 HEAT: -184.2090
 CYCLE:   196 TIME:   0.039 TIME LEFT:  2.00D  GRAD.:     0.985 HEAT: -184.2102
 CYCLE:   197 TIME:   0.031 TIME LEFT:  2.00D  GRAD.:     0.777 HEAT: -184.2111
 CYCLE:   198 TIME:   0.031 TIME LEFT:  2.00D  GRAD.:     0.891 HEAT: -184.2125
 CYCLE:   199 TIME:   0.023 TIME LEFT:  2.00D  GRAD.:     0.936 HEAT: -184.2137
 CYCLE:   200 TIME:   0.023 TIME LEFT:  2.00D  GRAD.:     1.227 HEAT: -184.2145
 CYCLE:   201 TIME:   0.031 TIME LEFT:  2.00D  GRAD.:     0.579 HEAT: -184.2153
 CYCLE:   202 TIME:   0.023 TIME LEFT:  2.00D  GRAD.:     0.637 HEAT: -184.2157
 CYCLE:   203 TIME:   0.023 TIME LEFT:  2.00D  GRAD.:     0.864 HEAT: -184.2161
 CYCLE:   204 TIME:   0.031 TIME LEFT:  2.00D  GRAD.:     0.643 HEAT: -184.2167
 CYCLE:   205 TIME:   0.023 TIME LEFT:  2.00D  GRAD.:     0.572 HEAT: -184.2173
 CYCLE:   206 TIME:   0.031 TIME LEFT:  2.00D  GRAD.:     0.699 HEAT: -184.2180
 CYCLE:   207 TIME:   0.023 TIME LEFT:  2.00D  GRAD.:     1.373 HEAT: -184.2187
 CYCLE:   208 TIME:   0.023 TIME LEFT:  2.00D  GRAD.:     0.664 HEAT: -184.2196
 CYCLE:   209 TIME:   0.031 TIME LEFT:  2.00D  GRAD.:     0.715 HEAT: -184.2203
 CYCLE:   210 TIME:   0.023 TIME LEFT:  2.00D  GRAD.:     1.362 HEAT: -184.2210
 CYCLE:   211 TIME:   0.023 TIME LEFT:  2.00D  GRAD.:     0.897 HEAT: -184.2218
 CYCLE:   212 TIME:   0.023 TIME LEFT:  2.00D  GRAD.:     0.700 HEAT: -184.2226
 CYCLE:   213 TIME:   0.031 TIME LEFT:  2.00D  GRAD.:     0.646 HEAT: -184.2236
 CYCLE:   214 TIME:   0.031 TIME LEFT:  2.00D  GRAD.:     1.195 HEAT: -184.2240
 CYCLE:   215 TIME:   0.023 TIME LEFT:  2.00D  GRAD.:     0.481 HEAT: -184.2246
 CYCLE:   216 TIME:   0.023 TIME LEFT:  2.00D  GRAD.:     0.418 HEAT: -184.2249
 CYCLE:   217 TIME:   0.023 TIME LEFT:  2.00D  GRAD.:     0.494 HEAT: -184.2251
 CYCLE:   218 TIME:   0.031 TIME LEFT:  2.00D  GRAD.:     1.883 HEAT: -184.2250
 CYCLE:   219 TIME:   0.023 TIME LEFT:  2.00D  GRAD.:     0.444 HEAT: -184.2256
 CYCLE:   220 TIME:   0.023 TIME LEFT:  2.00D  GRAD.:     0.305 HEAT: -184.2257
 CYCLE:   221 TIME:   0.031 TIME LEFT:  2.00D  GRAD.:     0.397 HEAT: -184.2259
 CYCLE:   222 TIME:   0.023 TIME LEFT:  2.00D  GRAD.:     0.400 HEAT: -184.2261
 CYCLE:   223 TIME:   0.031 TIME LEFT:  2.00D  GRAD.:     0.918 HEAT: -184.2265
 CYCLE:   224 TIME:   0.023 TIME LEFT:  2.00D  GRAD.:     0.478 HEAT: -184.2268
 CYCLE:   225 TIME:   0.023 TIME LEFT:  2.00D  GRAD.:     0.398 HEAT: -184.2270
 CYCLE:   226 TIME:   0.031 TIME LEFT:  2.00D  GRAD.:     0.513 HEAT: -184.2273
 CYCLE:   227 TIME:   0.023 TIME LEFT:  2.00D  GRAD.:     0.944 HEAT: -184.2276
 CYCLE:   228 TIME:   0.023 TIME LEFT:  2.00D  GRAD.:     0.709 HEAT: -184.2279
 CYCLE:   229 TIME:   0.031 TIME LEFT:  2.00D  GRAD.:     0.436 HEAT: -184.2284
 CYCLE:   230 TIME:   0.031 TIME LEFT:  2.00D  GRAD.:     0.584 HEAT: -184.2288
 CYCLE:   231 TIME:   0.023 TIME LEFT:  2.00D  GRAD.:     0.931 HEAT: -184.2290
 CYCLE:   232 TIME:   0.031 TIME LEFT:  2.00D  GRAD.:     0.398 HEAT: -184.2293
 CYCLE:   233 TIME:   0.039 TIME LEFT:  2.00D  GRAD.:     0.295 HEAT: -184.2295
 CYCLE:   234 TIME:   0.031 TIME LEFT:  2.00D  GRAD.:     0.345 HEAT: -184.2296
 CYCLE:   235 TIME:   0.039 TIME LEFT:  2.00D  GRAD.:     0.643 HEAT: -184.2298
 CYCLE:   236 TIME:   0.023 TIME LEFT:  2.00D  GRAD.:     0.292 HEAT: -184.2299
 CYCLE:   237 TIME:   0.031 TIME LEFT:  2.00D  GRAD.:     0.248 HEAT: -184.2299
 CYCLE:   238 TIME:   0.031 TIME LEFT:  2.00D  GRAD.:     0.271 HEAT: -184.2301
 CYCLE:   239 TIME:   0.023 TIME LEFT:  2.00D  GRAD.:     0.776 HEAT: -184.2303
 CYCLE:   240 TIME:   0.031 TIME LEFT:  2.00D  GRAD.:     0.408 HEAT: -184.2306
 CYCLE:   241 TIME:   0.023 TIME LEFT:  2.00D  GRAD.:     0.341 HEAT: -184.2308
 CYCLE:   242 TIME:   0.031 TIME LEFT:  2.00D  GRAD.:     0.438 HEAT: -184.2310
 CYCLE:   243 TIME:   0.023 TIME LEFT:  2.00D  GRAD.:     1.030 HEAT: -184.2311
 CYCLE:   244 TIME:   0.031 TIME LEFT:  2.00D  GRAD.:     0.310 HEAT: -184.2313
 CYCLE:   245 TIME:   0.023 TIME LEFT:  2.00D  GRAD.:     0.283 HEAT: -184.2314
 CYCLE:   246 TIME:   0.023 TIME LEFT:  2.00D  GRAD.:     0.261 HEAT: -184.2316
 CYCLE:   247 TIME:   0.031 TIME LEFT:  2.00D  GRAD.:     0.443 HEAT: -184.2317
 CYCLE:   248 TIME:   0.031 TIME LEFT:  2.00D  GRAD.:     0.297 HEAT: -184.2318
 CYCLE:   249 TIME:   0.023 TIME LEFT:  2.00D  GRAD.:     0.262 HEAT: -184.2319
 CYCLE:   250 TIME:   0.023 TIME LEFT:  2.00D  GRAD.:     0.260 HEAT: -184.2320
 CYCLE:   251 TIME:   0.023 TIME LEFT:  2.00D  GRAD.:     0.391 HEAT: -184.2321
 CYCLE:   252 TIME:   0.031 TIME LEFT:  2.00D  GRAD.:     0.194 HEAT: -184.2322

 -------------------------------------------------------------------------------
 AUX LARGE CHARGE=0 SINGLET  PM6  OPT PRECISE PRTXYZ
 CN277.pdb
 42


     HERBERTS TEST WAS SATISFIED IN BFGS                      
     SCF FIELD WAS ACHIEVED                                   


                              PM6 CALCULATION
                                                       MOPAC2016 (Version: 20.225L)
                                                       Fri Aug 14 20:41:21 2020
                                                       No. of days remaining = 364




          FINAL HEAT OF FORMATION =       -184.23217 KCAL/MOL =    -770.82739 KJ/MOL


          TOTAL ENERGY            =      -3207.54952 EV
          ELECTRONIC ENERGY       =     -23972.18651 EV  POINT GROUP:     C1  
          CORE-CORE REPULSION     =      20764.63698 EV
          COSMO AREA              =        277.81 SQUARE ANGSTROMS
          COSMO VOLUME            =        328.63 CUBIC ANGSTROMS

          GRADIENT NORM           =          0.19426 = 0.02998 PER ATOM
          IONIZATION POTENTIAL    =          9.316217 EV
          HOMO LUMO ENERGIES (EV) =         -9.316 -0.667
          NO. OF FILLED LEVELS    =         52
          MOLECULAR WEIGHT        =        256.3412

          MOLECULAR DIMENSIONS (Angstroms)

            Atom       Atom       Distance
            H    40    H    29     9.94303
            H    23    H    32     6.70086
            H    37    H    33     6.01126


          SCF CALCULATIONS        =        253
 
          WALL-CLOCK TIME         =          7.125 SECONDS
          COMPUTATION TIME        =         13.328 SECONDS




   ATOM   CHEMICAL          X               Y               Z
  NUMBER   SYMBOL      (ANGSTROMS)     (ANGSTROMS)     (ANGSTROMS)
 
     1       C         -1.60762353  *  -0.42243921  *   1.05086599  *
     2       C         -1.84393534  *   0.96877468  *   0.39391035  *
     3       C         -2.25584940  *   0.90208705  *  -1.09818085  *
     4       C         -0.49582491  *  -1.26103739  *   0.36520867  *
     5       C          0.67490673  *  -0.44717730  *  -0.12584146  *
     6       C          0.66966467  *   0.90600665  *  -0.09081954  *
     7       C         -0.49018839  *   1.71220936  *   0.42411909  *
     8       O         -0.37588195  *   2.84774015  *   0.82190334  *
     9       O          1.83111567  *   1.50954339  *  -0.52339285  *
    10       C          1.81545062  *   2.94258879  *  -0.75525796  *
    11       C          1.90124934  *  -1.18949195  *  -0.62491944  *
    12       C          2.86139080  *  -1.40369375  *   0.57076530  *
    13       C          4.20645567  *  -1.98629690  *   0.15250252  *
    14       O         -2.77226873  *  -1.24960441  *   0.93003193  *
    15       C          1.53977619  *  -2.50291462  *  -1.32073401  *
    16       C         -2.86305677  *   1.75663074  *   1.21958916  *
    17       C         -3.61954259  *   0.27256653  *  -1.35348119  *
    18       O         -0.07256223  *  -2.25165265  *   1.31244087  *
    19       H         -1.37667076  *  -0.30192446  *   2.13454105  *
    20       H         -2.24965492  *   1.93154691  *  -1.51338654  *
    21       H         -1.48877075  *   0.33654828  *  -1.66709971  *
    22       H         -0.95600555  *  -1.87592601  *  -0.45201699  *
    23       H          2.82202667  *   3.10502902  *  -1.15934879  *
    24       H          1.67118806  *   3.47570239  *   0.19277640  *
    25       H          1.04405749  *   3.20883272  *  -1.48037690  *
    26       H          2.42196042  *  -0.52937699  *  -1.37260937  *
    27       H          3.02570492  *  -0.42807676  *   1.07389822  *
    28       H          2.37652967  *  -2.06636847  *   1.31932604  *
    29       H          4.88463245  *  -2.06723673  *   1.00984385  *
    30       H          4.70102494  *  -1.35964447  *  -0.59913919  *
    31       H          4.09896874  *  -2.99021280  *  -0.27520148  *
    32       H         -3.49584548  *  -0.89467626  *   1.48670254  *
    33       H          2.42964477  *  -2.97860065  *  -1.74795302  *
    34       H          0.82998546  *  -2.34355868  *  -2.13884897  *
    35       H          1.09039488  *  -3.22314395  *  -0.62142527  *
    36       H         -2.98698614  *   2.77471728  *   0.82189774  *
    37       H         -2.54650285  *   1.87325813  *   2.26303378  *
    38       H         -3.84891509  *   1.28001226  *   1.20738176  *
    39       H         -3.82905402  *   0.21625214  *  -2.42778648  *
    40       H         -4.43178234  *   0.84134415  *  -0.88972289  *
    41       H         -3.66255346  *  -0.75439844  *  -0.95470212  *
    42       H          0.72734701  *  -1.95593778  *   1.80669785  *

                             CARTESIAN COORDINATES

   1    C       -1.607623533    -0.422439210     1.050865994
   2    C       -1.843935342     0.968774677     0.393910352
   3    C       -2.255849400     0.902087053    -1.098180849
   4    C       -0.495824908    -1.261037392     0.365208668
   5    C        0.674906730    -0.447177304    -0.125841461
   6    C        0.669664675     0.906006646    -0.090819536
   7    C       -0.490188386     1.712209359     0.424119091
   8    O       -0.375881948     2.847740153     0.821903341
   9    O        1.831115665     1.509543388    -0.523392849
  10    C        1.815450624     2.942588791    -0.755257957
  11    C        1.901249339    -1.189491948    -0.624919444
  12    C        2.861390803    -1.403693749     0.570765297
  13    C        4.206455671    -1.986296899     0.152502515
  14    O       -2.772268727    -1.249604415     0.930031929
  15    C        1.539776192    -2.502914616    -1.320734005
  16    C       -2.863056772     1.756630737     1.219589157
  17    C       -3.619542593     0.272566533    -1.353481195
  18    O       -0.072562230    -2.251652646     1.312440870
  19    H       -1.376670758    -0.301924456     2.134541053
  20    H       -2.249654917     1.931546914    -1.513386536
  21    H       -1.488770746     0.336548281    -1.667099715
  22    H       -0.956005550    -1.875926008    -0.452016987
  23    H        2.822026672     3.105029020    -1.159348786
  24    H        1.671188065     3.475702390     0.192776396
  25    H        1.044057490     3.208832722    -1.480376895
  26    H        2.421960418    -0.529376988    -1.372609366
  27    H        3.025704919    -0.428076762     1.073898221
  28    H        2.376529671    -2.066368470     1.319326044
  29    H        4.884632447    -2.067236725     1.009843853
  30    H        4.701024943    -1.359644467    -0.599139186
  31    H        4.098968742    -2.990212799    -0.275201476
  32    H       -3.495845476    -0.894676264     1.486702544
  33    H        2.429644771    -2.978600652    -1.747953019
  34    H        0.829985459    -2.343558683    -2.138848971
  35    H        1.090394879    -3.223143953    -0.621425269
  36    H       -2.986986139     2.774717279     0.821897742
  37    H       -2.546502848     1.873258134     2.263033779
  38    H       -3.848915092     1.280012262     1.207381764
  39    H       -3.829054020     0.216252141    -2.427786480
  40    H       -4.431782340     0.841344145    -0.889722893
  41    H       -3.662553458    -0.754398445    -0.954702117
  42    H        0.727347012    -1.955937775     1.806697850


           Empirical Formula: C14 H24 O4  =    42 atoms



      MOLECULAR POINT GROUP   :   C1  


                  EIGENVALUES  
 -32.37922 -30.97651 -30.62794 -30.04447 -29.09803 -28.51420 -27.58079 -26.24192
 -25.89912 -25.57692 -24.67173 -23.90925 -22.67882 -22.19664 -21.18254 -20.50962
 -19.74027 -18.51962 -18.14378 -17.80741 -17.13667 -16.61686 -16.25393 -16.18407
 -15.75164 -15.50074 -15.11112 -14.98162 -14.76940 -14.47823 -14.33692 -14.03923
 -13.83569 -13.55380 -13.43953 -13.36830 -13.34685 -13.20085 -12.95443 -12.82454
 -12.69010 -12.49907 -12.47504 -12.26053 -11.91604 -11.79046 -11.61247 -11.25217
 -10.71488 -10.30303 -10.11943  -9.31622  -0.66670   0.87831   1.35877   1.99789
   2.43540   2.50825   2.83002   3.14940   3.25557   3.43288   3.47458   3.88206
   3.96121   4.14219   4.16180   4.35282   4.40463   4.46348   4.68264   4.88237
   5.03089   5.21125   5.25497   5.33888   5.35231   5.38662   5.48644   5.52497
   5.64035   5.74273   5.80859   5.83076   5.88657   5.93039   6.00654   6.02561
   6.11291   6.16981   6.24384   6.49610   6.51171   6.83016   6.87990   7.04502


              NET ATOMIC CHARGES AND DIPOLE CONTRIBUTIONS

  ATOM NO.   TYPE          CHARGE      No. of ELECS.   s-Pop       p-Pop       
    1          C           0.079277        3.9207     1.12249     2.79823
    2          C          -0.055966        4.0560     1.11770     2.93826
    3          C          -0.231922        4.2319     1.08559     3.14633
    4          C           0.156996        3.8430     1.10147     2.74154
    5          C          -0.180656        4.1807     1.12486     3.05579
    6          C           0.051207        3.9488     1.11890     2.82989
    7          C           0.447508        3.5525     1.13997     2.41252
    8          O          -0.449916        6.4499     1.85164     4.59828
    9          O          -0.347105        6.3471     1.84312     4.50399
   10          C          -0.189744        4.1897     1.10714     3.08260
   11          C           0.000674        3.9993     1.07980     2.91952
   12          C          -0.247983        4.2480     1.08888     3.15910
   13          C          -0.453832        4.4538     1.08089     3.37294
   14          O          -0.535554        6.5356     1.82155     4.71401
   15          C          -0.497179        4.4972     1.08779     3.40939
   16          C          -0.480074        4.4801     1.08623     3.39384
   17          C          -0.458453        4.4585     1.08204     3.37641
   18          O          -0.544365        6.5444     1.82403     4.72033
   19          H           0.127434        0.8726     0.87257
   20          H           0.134293        0.8657     0.86571
   21          H           0.140865        0.8591     0.85913
   22          H           0.175753        0.8242     0.82425
   23          H           0.155317        0.8447     0.84468
   24          H           0.162839        0.8372     0.83716
   25          H           0.136887        0.8631     0.86311
   26          H           0.142592        0.8574     0.85741
   27          H           0.139019        0.8610     0.86098
   28          H           0.122693        0.8773     0.87731
   29          H           0.144694        0.8553     0.85531
   30          H           0.148917        0.8511     0.85108
   31          H           0.149371        0.8506     0.85063
   32          H           0.311773        0.6882     0.68823
   33          H           0.153839        0.8462     0.84616
   34          H           0.149812        0.8502     0.85019
   35          H           0.171851        0.8281     0.82815
   36          H           0.173670        0.8263     0.82633
   37          H           0.158902        0.8411     0.84110
   38          H           0.156057        0.8439     0.84394
   39          H           0.145400        0.8546     0.85460
   40          H           0.145143        0.8549     0.85486
   41          H           0.176893        0.8231     0.82311
   42          H           0.313077        0.6869     0.68692
 DIPOLE           X         Y         Z       TOTAL
 POINT-CHG.     0.022     1.388    -1.386     1.962
 HYBRID         0.045     0.363     0.591     0.695
 SUM            0.066     1.751    -0.795     1.924


          ATOMIC ORBITAL ELECTRON POPULATIONS

     Atom    s        px        py        pz   
    1  C   1.12249   0.84882   0.88603   1.06338
    2  C   1.11770   0.96220   0.97665   0.99941
    3  C   1.08559   1.04453   1.12568   0.97612
    4  C   1.10147   0.91333   0.89952   0.92869
    5  C   1.12486   1.03147   0.96820   1.05612
    6  C   1.11890   0.88275   0.94811   0.99903
    7  C   1.13997   0.90979   0.82923   0.67351
    8  O   1.85164   1.85867   1.31368   1.42592
    9  O   1.84312   1.38571   1.30109   1.81719
   10  C   1.10714   1.14625   0.79085   1.14551
   11  C   1.07980   0.93672   0.97658   1.00622
   12  C   1.08888   0.99266   1.12102   1.04542
   13  C   1.08089   1.05881   1.15350   1.16064
   14  O   1.82155   1.34536   1.60156   1.76709
   15  C   1.08779   1.17112   1.08735   1.15093
   16  C   1.08623   1.10875   1.14910   1.13599
   17  C   1.08204   1.04589   1.16820   1.16232
   18  O   1.82403   1.57970   1.53071   1.60992
   19  H   0.87257
   20  H   0.86571
   21  H   0.85913
   22  H   0.82425
   23  H   0.84468
   24  H   0.83716
   25  H   0.86311
   26  H   0.85741
   27  H   0.86098
   28  H   0.87731
   29  H   0.85531
   30  H   0.85108
   31  H   0.85063
   32  H   0.68823
   33  H   0.84616
   34  H   0.85019
   35  H   0.82815
   36  H   0.82633
   37  H   0.84110
   38  H   0.84394
   39  H   0.85460
   40  H   0.85486
   41  H   0.82311
   42  H   0.68692

 **********************
 *                    *
 * JOB ENDED NORMALLY *
 *                    *
 **********************



 TOTAL JOB TIME:             7.18 SECONDS

 == MOPAC DONE ==
