 *******************************************************************************
 ** Site#: 35412        For non-commercial use only    Version 20.225L 64BITS **
 *******************************************************************************
 ** Cite this program as: MOPAC2016, Version: 20.225L, James J. P. Stewart,   **
 ** Stewart Computational Chemistry, web: HTTP://OpenMOPAC.net. Days left: 364**
 *******************************************************************************
 **                                                                           **
 **                                MOPAC2016                                  **
 **                                                                           **
 *******************************************************************************

                              PM6 CALCULATION RESULTS

 *******************************************************************************
 *  CALCULATION DONE:                                Fri Aug 14 20:41:53 2020  *
 *  PM6        - The PM6 Hamiltonian to be used
 *  SINGLET    - SPIN STATE DEFINED AS A SINGLET
 *  OPT        - OPTIMIZE COORDINATES OF ALL ATOMS
 *
 *
 *
 *                 CHARGE ON SYSTEM = 0
 *
 *
 *
 *  PRECISE    - CRITERIA TO BE INCREASED BY 100 TIMES
 *  T=         - A TIME OF 172800.0 SECONDS REQUESTED
 *  DUMP=N     - RESTART FILE WRITTEN EVERY 7200.0 SECONDS REQUESTED
 *  AUX        - OUTPUT AUXILIARY INFORMATION
 *  PRTXYZ     - PRINT CARTESIAN COORDINATES
 *  LARGE      - EXPANDED OUTPUT TO BE PRINTED
 *******************************************************************************
 AUX LARGE CHARGE=0 SINGLET  PM6  OPT PRECISE PRTXYZ
 CN284.pdb
 21
   ATOM   CHEMICAL          X               Y               Z
  NUMBER   SYMBOL      (ANGSTROMS)     (ANGSTROMS)     (ANGSTROMS)
 
     1       C          6.17700000  *  -9.99200000  *  -0.04200000  *
     2       C          6.11600000  * -11.38900000  *   0.02000000  *
     3       C          7.28400000  * -12.15300000  *   0.06500000  *
     4       C          8.49900000  * -11.48600000  *   0.04800000  *
     5       C          8.55200000  * -10.11400000  *  -0.01300000  *
     6       C          7.40700000  *  -9.33400000  *  -0.05900000  *
     7       N          9.72900000  * -11.99700000  *   0.08200000  *
     8       C         10.58400000  * -10.96300000  *   0.04600000  *
     9       C          9.88600000  *  -9.75800000  *  -0.01500000  *
    10       C         10.43700000  *  -8.37400000  *  -0.07300000  *
    11       O          9.67000000  *  -7.40800000  *  -0.13800000  *
    12       C         11.90900000  *  -8.10800000  *  -0.07600000  *
    13       O         12.13200000  *  -6.71100000  *   0.18100000  *
    14       H          5.27600000  *  -9.42900000  *  -0.07600000  *
    15       H          5.16900000  * -11.87400000  *   0.03200000  *
    16       H          7.24000000  * -13.21600000  *   0.11200000  *
    17       H          7.46600000  *  -8.27400000  *  -0.10500000  *
    18       H         11.64100000  * -11.05200000  *   0.06000000  *
    19       H         12.41300000  *  -8.75500000  *   0.65700000  *
    20       H         12.30500000  *  -8.36900000  *  -1.06900000  *
    21       H         11.63000000  *  -6.17900000  *  -0.48900000  *
 


          CARTESIAN COORDINATES 

    NO.       ATOM           X           Y           Z

     1         C          6.1770     -9.9920     -0.0420
     2         C          6.1160    -11.3890      0.0200
     3         C          7.2840    -12.1530      0.0650
     4         C          8.4990    -11.4860      0.0480
     5         C          8.5520    -10.1140     -0.0130
     6         C          7.4070     -9.3340     -0.0590
     7         N          9.7290    -11.9970      0.0820
     8         C         10.5840    -10.9630      0.0460
     9         C          9.8860     -9.7580     -0.0150
    10         C         10.4370     -8.3740     -0.0730
    11         O          9.6700     -7.4080     -0.1380
    12         C         11.9090     -8.1080     -0.0760
    13         O         12.1320     -6.7110      0.1810
    14         H          5.2760     -9.4290     -0.0760
    15         H          5.1690    -11.8740      0.0320
    16         H          7.2400    -13.2160      0.1120
    17         H          7.4660     -8.2740     -0.1050
    18         H         11.6410    -11.0520      0.0600
    19         H         12.4130     -8.7550      0.6570
    20         H         12.3050     -8.3690     -1.0690
    21         H         11.6300     -6.1790     -0.4890

 General Reference for PM6:
 "Optimization of Parameters for Semiempirical Methods V: Modification of NDDO Approximations
 and Application to 70 Elements", J. J. P. Stewart, J. Mol. Mod., 13, 1173-1213 (2007)
 URL: https://link.springer.com/article/10.1007/s00894-007-0233-4

           Empirical Formula: C10 H8 N O2  =    21 atoms



      MOLECULAR POINT GROUP   :   C1  

          SINGLET SPECIFIED WITH ODD NUMBER OF ELECTRONS, CORRECT FAULT

 ******************************************************************************
 *                                                                            *
 *     Error and normal termination messages reported in this calculation     *
 *                                                                            *
 * SINGLET SPECIFIED WITH ODD NUMBER OF ELECTRONS, CORRECT FAULT              *
 * JOB ENDED NORMALLY                                                         *
 *                                                                            *
 ******************************************************************************



 TOTAL JOB TIME:             0.02 SECONDS

 == MOPAC DONE ==
