 *******************************************************************************
 ** Site#: 35412        For non-commercial use only    Version 20.225L 64BITS **
 *******************************************************************************
 ** Cite this program as: MOPAC2016, Version: 20.225L, James J. P. Stewart,   **
 ** Stewart Computational Chemistry, web: HTTP://OpenMOPAC.net. Days left: 364**
 *******************************************************************************
 **                                                                           **
 **                                MOPAC2016                                  **
 **                                                                           **
 *******************************************************************************

                              PM6 CALCULATION RESULTS

 *******************************************************************************
 *  CALCULATION DONE:                                Fri Aug 14 20:41:59 2020  *
 *  PM6        - The PM6 Hamiltonian to be used
 *  SINGLET    - SPIN STATE DEFINED AS A SINGLET
 *  OPT        - OPTIMIZE COORDINATES OF ALL ATOMS
 *
 *
 *
 *                 CHARGE ON SYSTEM = 0
 *
 *
 *
 *  PRECISE    - CRITERIA TO BE INCREASED BY 100 TIMES
 *  T=         - A TIME OF 172800.0 SECONDS REQUESTED
 *  DUMP=N     - RESTART FILE WRITTEN EVERY 7200.0 SECONDS REQUESTED
 *  AUX        - OUTPUT AUXILIARY INFORMATION
 *  PRTXYZ     - PRINT CARTESIAN COORDINATES
 *  LARGE      - EXPANDED OUTPUT TO BE PRINTED
 *******************************************************************************
 AUX LARGE CHARGE=0 SINGLET  PM6  OPT PRECISE PRTXYZ
 CN288.pdb
 51
   ATOM   CHEMICAL          X               Y               Z
  NUMBER   SYMBOL      (ANGSTROMS)     (ANGSTROMS)     (ANGSTROMS)
 
     1       C          8.17200000  * -11.59700000  *  -0.44000000  *
     2       C          8.34100000  * -12.87100000  *   0.10200000  *
     3       C          9.61400000  * -13.24600000  *   0.51700000  *
     4       C         10.68300000  * -12.36600000  *   0.39100000  *
     5       C         10.50000000  * -11.10000000  *  -0.14200000  *
     6       C          9.23100000  * -10.71600000  *  -0.55600000  *
     7       O         11.90500000  * -12.75200000  *   0.79700000  *
     8       C         13.02000000  * -11.95800000  *   0.71100000  *
     9       C         12.96400000  * -10.71700000  *   0.21600000  *
    10       C         11.64600000  * -10.21900000  *  -0.24400000  *
    11       O         11.52300000  *  -9.08200000  *  -0.71000000  *
    12       C         14.22700000  *  -9.87700000  *   0.14100000  *
    13       C         15.30300000  * -10.31400000  *  -0.63100000  *
    14       C         16.46700000  *  -9.56100000  *  -0.71400000  *
    15       C         16.57100000  *  -8.35900000  *  -0.02600000  *
    16       C         15.50700000  *  -7.91300000  *   0.74700000  *
    17       C         14.34200000  *  -8.66900000  *   0.82900000  *
    18       O          8.96600000  *  -9.47700000  *  -1.07800000  *
    19       O          7.23800000  * -13.80500000  *   0.26400000  *
    20       O          5.59900000  * -12.15900000  *  -0.29800000  *
    21       C          6.02500000  * -13.49700000  *  -0.55700000  *
    22       C          3.25100000  * -12.65800000  *  -0.84200000  *
    23       C          4.49900000  * -11.77100000  *  -1.13100000  *
    24       O          2.12600000  * -12.30800000  *  -1.67100000  *
    25       O          2.55900000  * -14.91800000  *  -0.86200000  *
    26       O          5.19300000  * -15.73300000  *  -0.45800000  *
    27       C          4.21200000  * -10.32900000  *  -0.81400000  *
    28       C          4.84000000  * -14.43700000  *  -0.22800000  *
    29       C          3.64800000  * -14.07900000  *  -1.13000000  *
    30       O          3.16500000  *  -9.87600000  *  -1.62000000  *
    31       O         17.73400000  *  -7.60300000  *  -0.10700000  *
    32       H          7.23200000  * -11.27200000  *  -0.76000000  *
    33       H          9.77400000  * -14.20300000  *   0.93300000  *
    34       H         13.95000000  * -12.34600000  *   1.04900000  *
    35       H         15.24400000  * -11.22600000  *  -1.16300000  *
    36       H         17.27800000  *  -9.90600000  *  -1.30700000  *
    37       H         15.58300000  *  -6.99200000  *   1.27700000  *
    38       H         13.54300000  *  -8.31500000  *   1.42100000  *
    39       H          8.02100000  *  -9.42300000  *  -1.28700000  *
    40       H          6.28900000  * -13.59700000  *  -1.62300000  *
    41       H          2.96400000  * -12.55800000  *   0.21600000  *
    42       H          4.78800000  * -11.87400000  *  -2.18800000  *
    43       H          1.86400000  * -11.37800000  *  -1.47900000  *
    44       H          2.30100000  * -14.79600000  *   0.07800000  *
    45       H          5.42200000  * -15.89500000  *  -1.41100000  *
    46       H          3.94000000  * -10.24200000  *   0.24200000  *
    47       H          5.10300000  *  -9.72400000  *  -1.01400000  *
    48       H          4.55900000  * -14.32000000  *   0.83000000  *
    49       H          3.93700000  * -14.18500000  *  -2.18400000  *
    50       H          3.43500000  *  -9.92200000  *  -2.58200000  *
    51       H         18.39800000  *  -8.05300000  *  -0.69600000  *
 


          CARTESIAN COORDINATES 

    NO.       ATOM           X           Y           Z

     1         C          8.1720    -11.5970     -0.4400
     2         C          8.3410    -12.8710      0.1020
     3         C          9.6140    -13.2460      0.5170
     4         C         10.6830    -12.3660      0.3910
     5         C         10.5000    -11.1000     -0.1420
     6         C          9.2310    -10.7160     -0.5560
     7         O         11.9050    -12.7520      0.7970
     8         C         13.0200    -11.9580      0.7110
     9         C         12.9640    -10.7170      0.2160
    10         C         11.6460    -10.2190     -0.2440
    11         O         11.5230     -9.0820     -0.7100
    12         C         14.2270     -9.8770      0.1410
    13         C         15.3030    -10.3140     -0.6310
    14         C         16.4670     -9.5610     -0.7140
    15         C         16.5710     -8.3590     -0.0260
    16         C         15.5070     -7.9130      0.7470
    17         C         14.3420     -8.6690      0.8290
    18         O          8.9660     -9.4770     -1.0780
    19         O          7.2380    -13.8050      0.2640
    20         O          5.5990    -12.1590     -0.2980
    21         C          6.0250    -13.4970     -0.5570
    22         C          3.2510    -12.6580     -0.8420
    23         C          4.4990    -11.7710     -1.1310
    24         O          2.1260    -12.3080     -1.6710
    25         O          2.5590    -14.9180     -0.8620
    26         O          5.1930    -15.7330     -0.4580
    27         C          4.2120    -10.3290     -0.8140
    28         C          4.8400    -14.4370     -0.2280
    29         C          3.6480    -14.0790     -1.1300
    30         O          3.1650     -9.8760     -1.6200
    31         O         17.7340     -7.6030     -0.1070
    32         H          7.2320    -11.2720     -0.7600
    33         H          9.7740    -14.2030      0.9330
    34         H         13.9500    -12.3460      1.0490
    35         H         15.2440    -11.2260     -1.1630
    36         H         17.2780     -9.9060     -1.3070
    37         H         15.5830     -6.9920      1.2770
    38         H         13.5430     -8.3150      1.4210
    39         H          8.0210     -9.4230     -1.2870
    40         H          6.2890    -13.5970     -1.6230
    41         H          2.9640    -12.5580      0.2160
    42         H          4.7880    -11.8740     -2.1880
    43         H          1.8640    -11.3780     -1.4790
    44         H          2.3010    -14.7960      0.0780
    45         H          5.4220    -15.8950     -1.4110
    46         H          3.9400    -10.2420      0.2420
    47         H          5.1030     -9.7240     -1.0140
    48         H          4.5590    -14.3200      0.8300
    49         H          3.9370    -14.1850     -2.1840
    50         H          3.4350     -9.9220     -2.5820
    51         H         18.3980     -8.0530     -0.6960

 General Reference for PM6:
 "Optimization of Parameters for Semiempirical Methods V: Modification of NDDO Approximations
 and Application to 70 Elements", J. J. P. Stewart, J. Mol. Mod., 13, 1173-1213 (2007)
 URL: https://link.springer.com/article/10.1007/s00894-007-0233-4

           Empirical Formula: C21 H20 O10  =    51 atoms



      MOLECULAR POINT GROUP   :   C1  


 SINGLET STATE CALCULATION


      RHF CALCULATION, NO. OF DOUBLY OCCUPIED LEVELS = 82


          Geometry optimization using L-BFGS
 CYCLE:     1 TIME:   0.094 TIME LEFT:  2.00D  GRAD.:   201.781 HEAT: -314.9063
 CYCLE:     2 TIME:   0.062 TIME LEFT:  2.00D  GRAD.:   198.712 HEAT: -315.3103
 CYCLE:     3 TIME:   0.047 TIME LEFT:  2.00D  GRAD.:    70.652 HEAT: -333.1126
 CYCLE:     4 TIME:   0.047 TIME LEFT:  2.00D  GRAD.:   198.761 HEAT: -315.3107
 CYCLE:     5 TIME:   0.055 TIME LEFT:  2.00D  GRAD.:    70.674 HEAT: -333.1123
 CYCLE:     6 TIME:   0.047 TIME LEFT:  2.00D  GRAD.:    62.896 HEAT: -336.0578
 CYCLE:     7 TIME:   0.055 TIME LEFT:  2.00D  GRAD.:    46.885 HEAT: -339.4854
 CYCLE:     8 TIME:   0.055 TIME LEFT:  2.00D  GRAD.:    58.054 HEAT: -340.7058
 CYCLE:     9 TIME:   0.055 TIME LEFT:  2.00D  GRAD.:    36.903 HEAT: -341.6810
 CYCLE:    10 TIME:   0.047 TIME LEFT:  2.00D  GRAD.:    35.110 HEAT: -343.2644
 CYCLE:    11 TIME:   0.062 TIME LEFT:  2.00D  GRAD.:    34.820 HEAT: -344.2787
 CYCLE:    12 TIME:   0.141 TIME LEFT:  2.00D  GRAD.:    86.760 HEAT: -344.3090
 CYCLE:    13 TIME:   0.047 TIME LEFT:  2.00D  GRAD.:    19.571 HEAT: -345.6906
 CYCLE:    14 TIME:   0.062 TIME LEFT:  2.00D  GRAD.:    15.995 HEAT: -345.9005
 CYCLE:    15 TIME:   0.055 TIME LEFT:  2.00D  GRAD.:    19.697 HEAT: -346.3609
 CYCLE:    16 TIME:   0.117 TIME LEFT:  2.00D  GRAD.:    23.702 HEAT: -346.8302
 CYCLE:    17 TIME:   0.039 TIME LEFT:  2.00D  GRAD.:    40.182 HEAT: -347.0784
 CYCLE:    18 TIME:   0.047 TIME LEFT:  2.00D  GRAD.:    15.028 HEAT: -347.5571
 CYCLE:    19 TIME:   0.062 TIME LEFT:  2.00D  GRAD.:    15.805 HEAT: -347.7728
 CYCLE:    20 TIME:   0.047 TIME LEFT:  2.00D  GRAD.:    20.667 HEAT: -348.1511
 CYCLE:    21 TIME:   0.055 TIME LEFT:  2.00D  GRAD.:    47.310 HEAT: -348.4274
 CYCLE:    22 TIME:   0.047 TIME LEFT:  2.00D  GRAD.:    17.970 HEAT: -348.9095
 CYCLE:    23 TIME:   0.047 TIME LEFT:  2.00D  GRAD.:    12.922 HEAT: -349.1098
 CYCLE:    24 TIME:   0.055 TIME LEFT:  2.00D  GRAD.:    15.953 HEAT: -349.3390
 CYCLE:    25 TIME:   0.047 TIME LEFT:  2.00D  GRAD.:    36.051 HEAT: -349.4728
 CYCLE:    26 TIME:   0.047 TIME LEFT:  2.00D  GRAD.:    14.704 HEAT: -349.6965
 CYCLE:    27 TIME:   0.047 TIME LEFT:  2.00D  GRAD.:     8.209 HEAT: -349.7997
 CYCLE:    28 TIME:   0.055 TIME LEFT:  2.00D  GRAD.:     8.542 HEAT: -349.8563
 CYCLE:    29 TIME:   0.047 TIME LEFT:  2.00D  GRAD.:     9.387 HEAT: -349.9559
 CYCLE:    30 TIME:   0.102 TIME LEFT:  2.00D  GRAD.:    24.604 HEAT: -350.0107
 CYCLE:    31 TIME:   0.039 TIME LEFT:  2.00D  GRAD.:     8.889 HEAT: -350.1494
 CYCLE:    32 TIME:   0.055 TIME LEFT:  2.00D  GRAD.:     8.211 HEAT: -350.2116
 CYCLE:    33 TIME:   0.055 TIME LEFT:  2.00D  GRAD.:    10.656 HEAT: -350.3369
 CYCLE:    34 TIME:   0.055 TIME LEFT:  2.00D  GRAD.:    20.685 HEAT: -350.4963
 CYCLE:    35 TIME:   0.047 TIME LEFT:  2.00D  GRAD.:    14.400 HEAT: -350.6757
 CYCLE:    36 TIME:   0.047 TIME LEFT:  2.00D  GRAD.:    10.703 HEAT: -350.8186
 CYCLE:    37 TIME:   0.055 TIME LEFT:  2.00D  GRAD.:    12.034 HEAT: -350.9384
 CYCLE:    38 TIME:   0.047 TIME LEFT:  2.00D  GRAD.:    13.803 HEAT: -351.0652
 CYCLE:    39 TIME:   0.055 TIME LEFT:  2.00D  GRAD.:    15.394 HEAT: -351.2645
 CYCLE:    40 TIME:   0.047 TIME LEFT:  2.00D  GRAD.:    13.487 HEAT: -351.4708
 CYCLE:    41 TIME:   0.047 TIME LEFT:  2.00D  GRAD.:    12.234 HEAT: -351.6591
 CYCLE:    42 TIME:   0.047 TIME LEFT:  2.00D  GRAD.:    18.438 HEAT: -351.8441
 CYCLE:    43 TIME:   0.062 TIME LEFT:  2.00D  GRAD.:    16.287 HEAT: -352.0172
 CYCLE:    44 TIME:   0.047 TIME LEFT:  2.00D  GRAD.:    15.970 HEAT: -352.2084
 CYCLE:    45 TIME:   0.047 TIME LEFT:  2.00D  GRAD.:    11.284 HEAT: -352.3448
 CYCLE:    46 TIME:   0.055 TIME LEFT:  2.00D  GRAD.:    17.355 HEAT: -352.4331
 CYCLE:    47 TIME:   0.047 TIME LEFT:  2.00D  GRAD.:    13.227 HEAT: -352.5606
 CYCLE:    48 TIME:   0.047 TIME LEFT:  2.00D  GRAD.:    10.544 HEAT: -352.6667
 CYCLE:    49 TIME:   0.047 TIME LEFT:  2.00D  GRAD.:     8.993 HEAT: -352.7747
 CYCLE:    50 TIME:   0.070 TIME LEFT:  2.00D  GRAD.:    15.683 HEAT: -352.8540
 CYCLE:    51 TIME:   0.062 TIME LEFT:  2.00D  GRAD.:    10.292 HEAT: -352.9538
 CYCLE:    52 TIME:   0.047 TIME LEFT:  2.00D  GRAD.:    10.593 HEAT: -353.0570
 CYCLE:    53 TIME:   0.047 TIME LEFT:  2.00D  GRAD.:    14.726 HEAT: -353.1485
 CYCLE:    54 TIME:   0.062 TIME LEFT:  2.00D  GRAD.:    18.304 HEAT: -353.3041
 CYCLE:    55 TIME:   0.055 TIME LEFT:  2.00D  GRAD.:    17.713 HEAT: -353.5125
 CYCLE:    56 TIME:   0.047 TIME LEFT:  2.00D  GRAD.:    15.289 HEAT: -353.6964
 CYCLE:    57 TIME:   0.047 TIME LEFT:  2.00D  GRAD.:    21.765 HEAT: -353.8143
 CYCLE:    58 TIME:   0.039 TIME LEFT:  2.00D  GRAD.:    19.757 HEAT: -354.0298
 CYCLE:    59 TIME:   0.055 TIME LEFT:  2.00D  GRAD.:    10.220 HEAT: -354.1954
 CYCLE:    60 TIME:   0.055 TIME LEFT:  2.00D  GRAD.:    10.249 HEAT: -354.2828
 CYCLE:    61 TIME:   0.047 TIME LEFT:  2.00D  GRAD.:    11.005 HEAT: -354.4007
 CYCLE:    62 TIME:   0.047 TIME LEFT:  2.00D  GRAD.:    11.505 HEAT: -354.5367
 CYCLE:    63 TIME:   0.055 TIME LEFT:  2.00D  GRAD.:     9.334 HEAT: -354.5971
 CYCLE:    64 TIME:   0.047 TIME LEFT:  2.00D  GRAD.:     6.741 HEAT: -354.6329
 CYCLE:    65 TIME:   0.047 TIME LEFT:  2.00D  GRAD.:     6.273 HEAT: -354.6925
 CYCLE:    66 TIME:   0.055 TIME LEFT:  2.00D  GRAD.:     9.596 HEAT: -354.7250
 CYCLE:    67 TIME:   0.039 TIME LEFT:  2.00D  GRAD.:     6.122 HEAT: -354.7718
 CYCLE:    68 TIME:   0.047 TIME LEFT:  2.00D  GRAD.:     5.198 HEAT: -354.8054
 CYCLE:    69 TIME:   0.039 TIME LEFT:  2.00D  GRAD.:     5.663 HEAT: -354.8351
 CYCLE:    70 TIME:   0.055 TIME LEFT:  2.00D  GRAD.:     6.856 HEAT: -354.8712
 CYCLE:    71 TIME:   0.086 TIME LEFT:  2.00D  GRAD.:     8.547 HEAT: -354.9135
 CYCLE:    72 TIME:   0.055 TIME LEFT:  2.00D  GRAD.:     7.623 HEAT: -354.9525
 CYCLE:    73 TIME:   0.047 TIME LEFT:  2.00D  GRAD.:     6.074 HEAT: -354.9872
 CYCLE:    74 TIME:   0.055 TIME LEFT:  2.00D  GRAD.:     5.271 HEAT: -355.0189
 CYCLE:    75 TIME:   0.055 TIME LEFT:  2.00D  GRAD.:     6.023 HEAT: -355.0396
 CYCLE:    76 TIME:   0.039 TIME LEFT:  2.00D  GRAD.:     3.751 HEAT: -355.0557
 CYCLE:    77 TIME:   0.047 TIME LEFT:  2.00D  GRAD.:     3.268 HEAT: -355.0712
 CYCLE:    78 TIME:   0.047 TIME LEFT:  2.00D  GRAD.:     5.452 HEAT: -355.0873
 CYCLE:    79 TIME:   0.047 TIME LEFT:  2.00D  GRAD.:     5.430 HEAT: -355.1068
 CYCLE:    80 TIME:   0.055 TIME LEFT:  2.00D  GRAD.:     4.571 HEAT: -355.1237
 CYCLE:    81 TIME:   0.055 TIME LEFT:  2.00D  GRAD.:     4.592 HEAT: -355.1411
 CYCLE:    82 TIME:   0.039 TIME LEFT:  2.00D  GRAD.:     6.370 HEAT: -355.1684
 CYCLE:    83 TIME:   0.047 TIME LEFT:  2.00D  GRAD.:     7.629 HEAT: -355.1896
 CYCLE:    84 TIME:   0.047 TIME LEFT:  2.00D  GRAD.:     4.274 HEAT: -355.2103
 CYCLE:    85 TIME:   0.039 TIME LEFT:  2.00D  GRAD.:     4.536 HEAT: -355.2336
 CYCLE:    86 TIME:   0.055 TIME LEFT:  2.00D  GRAD.:     5.381 HEAT: -355.2570
 CYCLE:    87 TIME:   0.047 TIME LEFT:  2.00D  GRAD.:     8.050 HEAT: -355.2875
 CYCLE:    88 TIME:   0.039 TIME LEFT:  2.00D  GRAD.:     6.450 HEAT: -355.3204
 CYCLE:    89 TIME:   0.055 TIME LEFT:  2.00D  GRAD.:     7.197 HEAT: -355.3544
 CYCLE:    90 TIME:   0.055 TIME LEFT:  2.00D  GRAD.:    10.687 HEAT: -355.3855
 CYCLE:    91 TIME:   0.055 TIME LEFT:  2.00D  GRAD.:     8.808 HEAT: -355.4425
 CYCLE:    92 TIME:   0.086 TIME LEFT:  2.00D  GRAD.:     8.160 HEAT: -355.4846
 CYCLE:    93 TIME:   0.047 TIME LEFT:  2.00D  GRAD.:     7.801 HEAT: -355.5174
 CYCLE:    94 TIME:   0.055 TIME LEFT:  2.00D  GRAD.:     6.395 HEAT: -355.5456
 CYCLE:    95 TIME:   0.047 TIME LEFT:  2.00D  GRAD.:     7.016 HEAT: -355.5778
 CYCLE:    96 TIME:   0.047 TIME LEFT:  2.00D  GRAD.:     6.630 HEAT: -355.6116
 CYCLE:    97 TIME:   0.047 TIME LEFT:  2.00D  GRAD.:     6.074 HEAT: -355.6530
 CYCLE:    98 TIME:   0.047 TIME LEFT:  2.00D  GRAD.:     6.427 HEAT: -355.7117
 CYCLE:    99 TIME:   0.055 TIME LEFT:  2.00D  GRAD.:    14.692 HEAT: -355.7382
 CYCLE:   100 TIME:   0.039 TIME LEFT:  2.00D  GRAD.:     5.469 HEAT: -355.7848
 CYCLE:   101 TIME:   0.055 TIME LEFT:  2.00D  GRAD.:     4.820 HEAT: -355.8059
 CYCLE:   102 TIME:   0.055 TIME LEFT:  2.00D  GRAD.:     6.663 HEAT: -355.8374
 CYCLE:   103 TIME:   0.047 TIME LEFT:  2.00D  GRAD.:     7.992 HEAT: -355.8656
 CYCLE:   104 TIME:   0.039 TIME LEFT:  2.00D  GRAD.:     5.175 HEAT: -355.9017
 CYCLE:   105 TIME:   0.055 TIME LEFT:  2.00D  GRAD.:     4.657 HEAT: -355.9338
 CYCLE:   106 TIME:   0.047 TIME LEFT:  2.00D  GRAD.:     7.158 HEAT: -355.9712
 CYCLE:   107 TIME:   0.055 TIME LEFT:  2.00D  GRAD.:    10.040 HEAT: -355.9892
 CYCLE:   108 TIME:   0.055 TIME LEFT:  2.00D  GRAD.:     7.142 HEAT: -356.0246
 CYCLE:   109 TIME:   0.047 TIME LEFT:  2.00D  GRAD.:     6.326 HEAT: -356.0639
 CYCLE:   110 TIME:   0.062 TIME LEFT:  2.00D  GRAD.:     6.332 HEAT: -356.1016
 CYCLE:   111 TIME:   0.047 TIME LEFT:  2.00D  GRAD.:    10.166 HEAT: -356.1502
 CYCLE:   112 TIME:   0.086 TIME LEFT:  2.00D  GRAD.:    11.376 HEAT: -356.1867
 CYCLE:   113 TIME:   0.062 TIME LEFT:  2.00D  GRAD.:     7.262 HEAT: -356.2284
 CYCLE:   114 TIME:   0.055 TIME LEFT:  2.00D  GRAD.:     8.801 HEAT: -356.2733
 CYCLE:   115 TIME:   0.070 TIME LEFT:  2.00D  GRAD.:     6.289 HEAT: -356.3117
 CYCLE:   116 TIME:   0.039 TIME LEFT:  2.00D  GRAD.:     5.593 HEAT: -356.3521
 CYCLE:   117 TIME:   0.047 TIME LEFT:  2.00D  GRAD.:     8.287 HEAT: -356.3900
 CYCLE:   118 TIME:   0.047 TIME LEFT:  2.00D  GRAD.:     6.482 HEAT: -356.4282
 CYCLE:   119 TIME:   0.047 TIME LEFT:  2.00D  GRAD.:     4.754 HEAT: -356.4563
 CYCLE:   120 TIME:   0.047 TIME LEFT:  2.00D  GRAD.:     5.386 HEAT: -356.4891
 CYCLE:   121 TIME:   0.062 TIME LEFT:  2.00D  GRAD.:     8.333 HEAT: -356.5239
 CYCLE:   122 TIME:   0.039 TIME LEFT:  2.00D  GRAD.:     7.195 HEAT: -356.5683
 CYCLE:   123 TIME:   0.047 TIME LEFT:  2.00D  GRAD.:     8.909 HEAT: -356.6039
 CYCLE:   124 TIME:   0.062 TIME LEFT:  2.00D  GRAD.:    11.131 HEAT: -356.6672
 CYCLE:   125 TIME:   0.055 TIME LEFT:  2.00D  GRAD.:     7.368 HEAT: -356.7213
 CYCLE:   126 TIME:   0.047 TIME LEFT:  2.00D  GRAD.:     6.254 HEAT: -356.7632
 CYCLE:   127 TIME:   0.055 TIME LEFT:  2.00D  GRAD.:     8.007 HEAT: -356.8207
 CYCLE:   128 TIME:   0.047 TIME LEFT:  2.00D  GRAD.:    10.935 HEAT: -356.8641
 CYCLE:   129 TIME:   0.047 TIME LEFT:  2.00D  GRAD.:     8.349 HEAT: -356.9114
 CYCLE:   130 TIME:   0.055 TIME LEFT:  2.00D  GRAD.:    14.471 HEAT: -356.9341
 CYCLE:   131 TIME:   0.047 TIME LEFT:  2.00D  GRAD.:     6.070 HEAT: -356.9754
 CYCLE:   132 TIME:   0.062 TIME LEFT:  2.00D  GRAD.:     4.982 HEAT: -356.9957
 CYCLE:   133 TIME:   0.086 TIME LEFT:  2.00D  GRAD.:     6.409 HEAT: -357.0239
 CYCLE:   134 TIME:   0.039 TIME LEFT:  2.00D  GRAD.:     7.856 HEAT: -357.0723
 CYCLE:   135 TIME:   0.062 TIME LEFT:  2.00D  GRAD.:    15.009 HEAT: -357.0861
 CYCLE:   136 TIME:   0.047 TIME LEFT:  2.00D  GRAD.:     5.053 HEAT: -357.1368
 CYCLE:   137 TIME:   0.047 TIME LEFT:  2.00D  GRAD.:     5.515 HEAT: -357.1546
 CYCLE:   138 TIME:   0.047 TIME LEFT:  2.00D  GRAD.:     6.339 HEAT: -357.1824
 CYCLE:   139 TIME:   0.047 TIME LEFT:  2.00D  GRAD.:     7.940 HEAT: -357.2155
 CYCLE:   140 TIME:   0.047 TIME LEFT:  2.00D  GRAD.:     5.127 HEAT: -357.2432
 CYCLE:   141 TIME:   0.055 TIME LEFT:  2.00D  GRAD.:     4.845 HEAT: -357.2602
 CYCLE:   142 TIME:   0.055 TIME LEFT:  2.00D  GRAD.:     5.564 HEAT: -357.2889
 CYCLE:   143 TIME:   0.055 TIME LEFT:  2.00D  GRAD.:     8.274 HEAT: -357.3219
 CYCLE:   144 TIME:   0.047 TIME LEFT:  2.00D  GRAD.:     4.730 HEAT: -357.3559
 CYCLE:   145 TIME:   0.039 TIME LEFT:  2.00D  GRAD.:     4.171 HEAT: -357.3760
 CYCLE:   146 TIME:   0.055 TIME LEFT:  2.00D  GRAD.:     6.466 HEAT: -357.3998
 CYCLE:   147 TIME:   0.047 TIME LEFT:  2.00D  GRAD.:     7.235 HEAT: -357.4228
 CYCLE:   148 TIME:   0.047 TIME LEFT:  2.00D  GRAD.:     5.575 HEAT: -357.4478
 CYCLE:   149 TIME:   0.047 TIME LEFT:  2.00D  GRAD.:     9.386 HEAT: -357.4564
 CYCLE:   150 TIME:   0.047 TIME LEFT:  2.00D  GRAD.:     8.238 HEAT: -357.4942
 CYCLE:   151 TIME:   0.047 TIME LEFT:  2.00D  GRAD.:    11.566 HEAT: -357.5121
 CYCLE:   152 TIME:   0.047 TIME LEFT:  2.00D  GRAD.:     4.085 HEAT: -357.5411
 CYCLE:   153 TIME:   0.094 TIME LEFT:  2.00D  GRAD.:     4.173 HEAT: -357.5652
 CYCLE:   154 TIME:   0.047 TIME LEFT:  2.00D  GRAD.:     6.812 HEAT: -357.6002
 CYCLE:   155 TIME:   0.047 TIME LEFT:  2.00D  GRAD.:     9.052 HEAT: -357.6417
 CYCLE:   156 TIME:   0.055 TIME LEFT:  2.00D  GRAD.:    12.860 HEAT: -357.6913
 CYCLE:   157 TIME:   0.047 TIME LEFT:  2.00D  GRAD.:     8.772 HEAT: -357.7473
 CYCLE:   158 TIME:   0.047 TIME LEFT:  2.00D  GRAD.:     9.501 HEAT: -357.7887
 CYCLE:   159 TIME:   0.055 TIME LEFT:  2.00D  GRAD.:    11.369 HEAT: -357.8341
 CYCLE:   160 TIME:   0.047 TIME LEFT:  2.00D  GRAD.:     8.058 HEAT: -357.9104
 CYCLE:   161 TIME:   0.055 TIME LEFT:  2.00D  GRAD.:     8.206 HEAT: -357.9958
 CYCLE:   162 TIME:   0.055 TIME LEFT:  2.00D  GRAD.:    18.782 HEAT: -358.0698
 CYCLE:   163 TIME:   0.047 TIME LEFT:  2.00D  GRAD.:    11.270 HEAT: -358.1560
 CYCLE:   164 TIME:   0.047 TIME LEFT:  2.00D  GRAD.:    11.456 HEAT: -358.2275
 CYCLE:   165 TIME:   0.047 TIME LEFT:  2.00D  GRAD.:    10.926 HEAT: -358.2623
 CYCLE:   166 TIME:   0.047 TIME LEFT:  2.00D  GRAD.:     7.282 HEAT: -358.3184
 CYCLE:   167 TIME:   0.047 TIME LEFT:  2.00D  GRAD.:     7.801 HEAT: -358.3612
 CYCLE:   168 TIME:   0.047 TIME LEFT:  2.00D  GRAD.:    10.353 HEAT: -358.4216
 CYCLE:   169 TIME:   0.055 TIME LEFT:  2.00D  GRAD.:    12.844 HEAT: -358.5057
 CYCLE:   170 TIME:   0.039 TIME LEFT:  2.00D  GRAD.:     8.627 HEAT: -358.5926
 CYCLE:   171 TIME:   0.055 TIME LEFT:  2.00D  GRAD.:     8.454 HEAT: -358.6712
 CYCLE:   172 TIME:   0.047 TIME LEFT:  2.00D  GRAD.:    12.351 HEAT: -358.7050
 CYCLE:   173 TIME:   0.047 TIME LEFT:  2.00D  GRAD.:    15.493 HEAT: -358.7724
 CYCLE:   174 TIME:   0.086 TIME LEFT:  2.00D  GRAD.:    10.526 HEAT: -358.8510
 CYCLE:   175 TIME:   0.047 TIME LEFT:  2.00D  GRAD.:     7.896 HEAT: -358.9024
 CYCLE:   176 TIME:   0.047 TIME LEFT:  2.00D  GRAD.:     7.658 HEAT: -358.9605
 CYCLE:   177 TIME:   0.055 TIME LEFT:  2.00D  GRAD.:    12.104 HEAT: -359.0138
 CYCLE:   178 TIME:   0.039 TIME LEFT:  2.00D  GRAD.:     9.207 HEAT: -359.0650
 CYCLE:   179 TIME:   0.047 TIME LEFT:  2.00D  GRAD.:     7.435 HEAT: -359.1101
 CYCLE:   180 TIME:   0.047 TIME LEFT:  2.00D  GRAD.:    10.547 HEAT: -359.2093
 CYCLE:   181 TIME:   0.047 TIME LEFT:  2.00D  GRAD.:     9.688 HEAT: -359.3138
 CYCLE:   182 TIME:   0.047 TIME LEFT:  2.00D  GRAD.:    12.290 HEAT: -359.3727
 CYCLE:   183 TIME:   0.055 TIME LEFT:  2.00D  GRAD.:     8.021 HEAT: -359.4615
 CYCLE:   184 TIME:   0.047 TIME LEFT:  2.00D  GRAD.:    11.467 HEAT: -359.5353
 CYCLE:   185 TIME:   0.047 TIME LEFT:  2.00D  GRAD.:    10.502 HEAT: -359.6067
 CYCLE:   186 TIME:   0.047 TIME LEFT:  2.00D  GRAD.:     7.193 HEAT: -359.6626
 CYCLE:   187 TIME:   0.047 TIME LEFT:  2.00D  GRAD.:     7.909 HEAT: -359.7301
 CYCLE:   188 TIME:   0.039 TIME LEFT:  2.00D  GRAD.:     9.482 HEAT: -359.7735
 CYCLE:   189 TIME:   0.047 TIME LEFT:  2.00D  GRAD.:     8.645 HEAT: -359.8386
 CYCLE:   190 TIME:   0.047 TIME LEFT:  2.00D  GRAD.:    15.046 HEAT: -359.8812
 CYCLE:   191 TIME:   0.047 TIME LEFT:  2.00D  GRAD.:     7.645 HEAT: -359.9398
 CYCLE:   192 TIME:   0.047 TIME LEFT:  2.00D  GRAD.:     6.532 HEAT: -359.9927
 CYCLE:   193 TIME:   0.055 TIME LEFT:  2.00D  GRAD.:     7.547 HEAT: -360.0384
 CYCLE:   194 TIME:   0.039 TIME LEFT:  2.00D  GRAD.:    11.949 HEAT: -360.1092
 CYCLE:   195 TIME:   0.047 TIME LEFT:  2.00D  GRAD.:     9.748 HEAT: -360.1633
 CYCLE:   196 TIME:   0.109 TIME LEFT:  2.00D  GRAD.:     5.334 HEAT: -360.1993
 CYCLE:   197 TIME:   0.047 TIME LEFT:  2.00D  GRAD.:     8.350 HEAT: -360.2266
 CYCLE:   198 TIME:   0.039 TIME LEFT:  2.00D  GRAD.:     7.013 HEAT: -360.2671
 CYCLE:   199 TIME:   0.047 TIME LEFT:  2.00D  GRAD.:     8.291 HEAT: -360.3143
 CYCLE:   200 TIME:   0.039 TIME LEFT:  2.00D  GRAD.:     6.391 HEAT: -360.3537
 CYCLE:   201 TIME:   0.047 TIME LEFT:  2.00D  GRAD.:     5.957 HEAT: -360.3783
 CYCLE:   202 TIME:   0.039 TIME LEFT:  2.00D  GRAD.:    10.061 HEAT: -360.4183
 CYCLE:   203 TIME:   0.055 TIME LEFT:  2.00D  GRAD.:     6.025 HEAT: -360.4573
 CYCLE:   204 TIME:   0.055 TIME LEFT:  2.00D  GRAD.:     5.861 HEAT: -360.4836
 CYCLE:   205 TIME:   0.047 TIME LEFT:  2.00D  GRAD.:     7.575 HEAT: -360.5291
 CYCLE:   206 TIME:   0.047 TIME LEFT:  2.00D  GRAD.:    11.603 HEAT: -360.5604
 CYCLE:   207 TIME:   0.047 TIME LEFT:  2.00D  GRAD.:     4.836 HEAT: -360.5984
 CYCLE:   208 TIME:   0.062 TIME LEFT:  2.00D  GRAD.:     4.058 HEAT: -360.6176
 CYCLE:   209 TIME:   0.055 TIME LEFT:  2.00D  GRAD.:     4.584 HEAT: -360.6400
 CYCLE:   210 TIME:   0.055 TIME LEFT:  2.00D  GRAD.:    11.056 HEAT: -360.6623
 CYCLE:   211 TIME:   0.047 TIME LEFT:  2.00D  GRAD.:     4.560 HEAT: -360.6945
 CYCLE:   212 TIME:   0.047 TIME LEFT:  2.00D  GRAD.:     3.756 HEAT: -360.7101
 CYCLE:   213 TIME:   0.039 TIME LEFT:  2.00D  GRAD.:     4.809 HEAT: -360.7322
 CYCLE:   214 TIME:   0.055 TIME LEFT:  2.00D  GRAD.:    11.608 HEAT: -360.7498
 CYCLE:   215 TIME:   0.055 TIME LEFT:  2.00D  GRAD.:     5.606 HEAT: -360.7790
 CYCLE:   216 TIME:   0.055 TIME LEFT:  2.00D  GRAD.:     3.743 HEAT: -360.7994
 CYCLE:   217 TIME:   0.086 TIME LEFT:  2.00D  GRAD.:     4.555 HEAT: -360.8133
 CYCLE:   218 TIME:   0.055 TIME LEFT:  2.00D  GRAD.:     9.543 HEAT: -360.8296
 CYCLE:   219 TIME:   0.047 TIME LEFT:  2.00D  GRAD.:     5.205 HEAT: -360.8516
 CYCLE:   220 TIME:   0.047 TIME LEFT:  2.00D  GRAD.:     4.230 HEAT: -360.8711
 CYCLE:   221 TIME:   0.047 TIME LEFT:  2.00D  GRAD.:     4.657 HEAT: -360.8884
 CYCLE:   222 TIME:   0.047 TIME LEFT:  2.00D  GRAD.:     5.186 HEAT: -360.9186
 CYCLE:   223 TIME:   0.055 TIME LEFT:  2.00D  GRAD.:     9.789 HEAT: -360.9296
 CYCLE:   224 TIME:   0.047 TIME LEFT:  2.00D  GRAD.:     3.942 HEAT: -360.9592
 CYCLE:   225 TIME:   0.047 TIME LEFT:  2.00D  GRAD.:     3.355 HEAT: -360.9701
 CYCLE:   226 TIME:   0.047 TIME LEFT:  2.00D  GRAD.:     3.824 HEAT: -360.9907
 CYCLE:   227 TIME:   0.047 TIME LEFT:  2.00D  GRAD.:    11.477 HEAT: -360.9951
 CYCLE:   228 TIME:   0.047 TIME LEFT:  2.00D  GRAD.:     3.707 HEAT: -361.0205
 CYCLE:   229 TIME:   0.039 TIME LEFT:  2.00D  GRAD.:     2.614 HEAT: -361.0296
 CYCLE:   230 TIME:   0.047 TIME LEFT:  2.00D  GRAD.:     3.782 HEAT: -361.0396
 CYCLE:   231 TIME:   0.055 TIME LEFT:  2.00D  GRAD.:     4.927 HEAT: -361.0532
 CYCLE:   232 TIME:   0.047 TIME LEFT:  2.00D  GRAD.:     3.742 HEAT: -361.0733
 CYCLE:   233 TIME:   0.047 TIME LEFT:  2.00D  GRAD.:     6.344 HEAT: -361.0827
 CYCLE:   234 TIME:   0.047 TIME LEFT:  2.00D  GRAD.:     3.264 HEAT: -361.0943
 CYCLE:   235 TIME:   0.055 TIME LEFT:  2.00D  GRAD.:     3.007 HEAT: -361.1004
 CYCLE:   236 TIME:   0.047 TIME LEFT:  2.00D  GRAD.:     3.932 HEAT: -361.1173
 CYCLE:   237 TIME:   0.070 TIME LEFT:  2.00D  GRAD.:     7.471 HEAT: -361.1285
 CYCLE:   238 TIME:   0.078 TIME LEFT:  2.00D  GRAD.:     4.447 HEAT: -361.1438
 CYCLE:   239 TIME:   0.047 TIME LEFT:  2.00D  GRAD.:     3.357 HEAT: -361.1617
 CYCLE:   240 TIME:   0.047 TIME LEFT:  2.00D  GRAD.:     3.933 HEAT: -361.1721
 CYCLE:   241 TIME:   0.039 TIME LEFT:  2.00D  GRAD.:     6.213 HEAT: -361.1863
 CYCLE:   242 TIME:   0.047 TIME LEFT:  2.00D  GRAD.:     3.311 HEAT: -361.2016
 CYCLE:   243 TIME:   0.055 TIME LEFT:  2.00D  GRAD.:     3.487 HEAT: -361.2146
 CYCLE:   244 TIME:   0.047 TIME LEFT:  2.00D  GRAD.:     3.950 HEAT: -361.2290
 CYCLE:   245 TIME:   0.055 TIME LEFT:  2.00D  GRAD.:     6.460 HEAT: -361.2364
 CYCLE:   246 TIME:   0.055 TIME LEFT:  2.00D  GRAD.:     5.773 HEAT: -361.2524
 CYCLE:   247 TIME:   0.047 TIME LEFT:  2.00D  GRAD.:     3.236 HEAT: -361.2658
 CYCLE:   248 TIME:   0.047 TIME LEFT:  2.00D  GRAD.:     3.296 HEAT: -361.2754
 CYCLE:   249 TIME:   0.047 TIME LEFT:  2.00D  GRAD.:     3.572 HEAT: -361.2831
 CYCLE:   250 TIME:   0.062 TIME LEFT:  2.00D  GRAD.:     4.083 HEAT: -361.2928
 CYCLE:   251 TIME:   0.047 TIME LEFT:  2.00D  GRAD.:     3.920 HEAT: -361.3009
 CYCLE:   252 TIME:   0.055 TIME LEFT:  2.00D  GRAD.:     2.789 HEAT: -361.3074
 CYCLE:   253 TIME:   0.047 TIME LEFT:  2.00D  GRAD.:     2.255 HEAT: -361.3150
 CYCLE:   254 TIME:   0.039 TIME LEFT:  2.00D  GRAD.:     4.195 HEAT: -361.3206
 CYCLE:   255 TIME:   0.047 TIME LEFT:  2.00D  GRAD.:     2.337 HEAT: -361.3271
 CYCLE:   256 TIME:   0.047 TIME LEFT:  2.00D  GRAD.:     2.339 HEAT: -361.3334
 CYCLE:   257 TIME:   0.062 TIME LEFT:  2.00D  GRAD.:     3.192 HEAT: -361.3403
 CYCLE:   258 TIME:   0.086 TIME LEFT:  2.00D  GRAD.:     4.558 HEAT: -361.3494
 CYCLE:   259 TIME:   0.047 TIME LEFT:  2.00D  GRAD.:     2.965 HEAT: -361.3585
 CYCLE:   260 TIME:   0.039 TIME LEFT:  2.00D  GRAD.:     2.673 HEAT: -361.3665
 CYCLE:   261 TIME:   0.047 TIME LEFT:  2.00D  GRAD.:     3.098 HEAT: -361.3744
 CYCLE:   262 TIME:   0.055 TIME LEFT:  2.00D  GRAD.:     4.843 HEAT: -361.3829
 CYCLE:   263 TIME:   0.039 TIME LEFT:  2.00D  GRAD.:     2.896 HEAT: -361.3916
 CYCLE:   264 TIME:   0.047 TIME LEFT:  2.00D  GRAD.:     2.372 HEAT: -361.3981
 CYCLE:   265 TIME:   0.055 TIME LEFT:  2.00D  GRAD.:     2.934 HEAT: -361.4039
 CYCLE:   266 TIME:   0.055 TIME LEFT:  2.00D  GRAD.:     4.360 HEAT: -361.4101
 CYCLE:   267 TIME:   0.039 TIME LEFT:  2.00D  GRAD.:     2.589 HEAT: -361.4171
 CYCLE:   268 TIME:   0.055 TIME LEFT:  2.00D  GRAD.:     2.658 HEAT: -361.4266
 CYCLE:   269 TIME:   0.047 TIME LEFT:  2.00D  GRAD.:     3.299 HEAT: -361.4338
 CYCLE:   270 TIME:   0.047 TIME LEFT:  2.00D  GRAD.:     4.147 HEAT: -361.4461
 CYCLE:   271 TIME:   0.039 TIME LEFT:  2.00D  GRAD.:     3.489 HEAT: -361.4607
 CYCLE:   272 TIME:   0.055 TIME LEFT:  2.00D  GRAD.:     4.522 HEAT: -361.4750
 CYCLE:   273 TIME:   0.047 TIME LEFT:  2.00D  GRAD.:     4.887 HEAT: -361.4876
 CYCLE:   274 TIME:   0.047 TIME LEFT:  2.00D  GRAD.:     2.854 HEAT: -361.4961
 CYCLE:   275 TIME:   0.047 TIME LEFT:  2.00D  GRAD.:     2.330 HEAT: -361.5009
 CYCLE:   276 TIME:   0.039 TIME LEFT:  2.00D  GRAD.:     2.940 HEAT: -361.5104
 CYCLE:   277 TIME:   0.047 TIME LEFT:  2.00D  GRAD.:     4.717 HEAT: -361.5137
 CYCLE:   278 TIME:   0.055 TIME LEFT:  2.00D  GRAD.:     2.501 HEAT: -361.5184
 CYCLE:   279 TIME:   0.047 TIME LEFT:  2.00D  GRAD.:     1.918 HEAT: -361.5235
 CYCLE:   280 TIME:   0.094 TIME LEFT:  2.00D  GRAD.:     2.069 HEAT: -361.5268
 CYCLE:   281 TIME:   0.047 TIME LEFT:  2.00D  GRAD.:     4.863 HEAT: -361.5320
 CYCLE:   282 TIME:   0.055 TIME LEFT:  2.00D  GRAD.:     2.388 HEAT: -361.5378
 CYCLE:   283 TIME:   0.047 TIME LEFT:  2.00D  GRAD.:     1.832 HEAT: -361.5408
 CYCLE:   284 TIME:   0.055 TIME LEFT:  2.00D  GRAD.:     2.407 HEAT: -361.5461
 CYCLE:   285 TIME:   0.047 TIME LEFT:  2.00D  GRAD.:     3.847 HEAT: -361.5527
 CYCLE:   286 TIME:   0.055 TIME LEFT:  2.00D  GRAD.:     3.078 HEAT: -361.5608
 CYCLE:   287 TIME:   0.055 TIME LEFT:  2.00D  GRAD.:     3.204 HEAT: -361.5693
 CYCLE:   288 TIME:   0.047 TIME LEFT:  2.00D  GRAD.:     2.478 HEAT: -361.5777
 CYCLE:   289 TIME:   0.055 TIME LEFT:  2.00D  GRAD.:     3.178 HEAT: -361.5866
 CYCLE:   290 TIME:   0.039 TIME LEFT:  2.00D  GRAD.:     6.575 HEAT: -361.5951
 CYCLE:   291 TIME:   0.055 TIME LEFT:  2.00D  GRAD.:     2.661 HEAT: -361.6073
 CYCLE:   292 TIME:   0.047 TIME LEFT:  2.00D  GRAD.:     2.498 HEAT: -361.6124
 CYCLE:   293 TIME:   0.039 TIME LEFT:  2.00D  GRAD.:     2.982 HEAT: -361.6217
 CYCLE:   294 TIME:   0.047 TIME LEFT:  2.00D  GRAD.:     9.366 HEAT: -361.6228
 CYCLE:   295 TIME:   0.055 TIME LEFT:  2.00D  GRAD.:     3.531 HEAT: -361.6370
 CYCLE:   296 TIME:   0.047 TIME LEFT:  2.00D  GRAD.:     2.343 HEAT: -361.6437
 CYCLE:   297 TIME:   0.047 TIME LEFT:  2.00D  GRAD.:     3.407 HEAT: -361.6523
 CYCLE:   298 TIME:   0.047 TIME LEFT:  2.00D  GRAD.:     3.875 HEAT: -361.6641
 CYCLE:   299 TIME:   0.039 TIME LEFT:  2.00D  GRAD.:     6.533 HEAT: -361.6777
 CYCLE:   300 TIME:   0.070 TIME LEFT:  2.00D  GRAD.:     4.185 HEAT: -361.6982
 CYCLE:   301 TIME:   0.070 TIME LEFT:  2.00D  GRAD.:     8.153 HEAT: -361.7055
 CYCLE:   302 TIME:   0.055 TIME LEFT:  2.00D  GRAD.:     3.534 HEAT: -361.7260
 CYCLE:   303 TIME:   0.047 TIME LEFT:  2.00D  GRAD.:     3.525 HEAT: -361.7387
 CYCLE:   304 TIME:   0.055 TIME LEFT:  2.00D  GRAD.:     4.352 HEAT: -361.7541
 CYCLE:   305 TIME:   0.047 TIME LEFT:  2.00D  GRAD.:     4.004 HEAT: -361.7775
 CYCLE:   306 TIME:   0.047 TIME LEFT:  2.00D  GRAD.:    10.998 HEAT: -361.7789
 CYCLE:   307 TIME:   0.047 TIME LEFT:  2.00D  GRAD.:     4.733 HEAT: -361.7986
 CYCLE:   308 TIME:   0.055 TIME LEFT:  2.00D  GRAD.:     2.771 HEAT: -361.8078
 CYCLE:   309 TIME:   0.047 TIME LEFT:  2.00D  GRAD.:     3.160 HEAT: -361.8164
 CYCLE:   310 TIME:   0.055 TIME LEFT:  2.00D  GRAD.:     3.961 HEAT: -361.8308
 CYCLE:   311 TIME:   0.047 TIME LEFT:  2.00D  GRAD.:    14.358 HEAT: -361.8217
 CYCLE:   312 TIME:   0.047 TIME LEFT:  2.00D  GRAD.:     3.966 HEAT: -361.8544
 CYCLE:   313 TIME:   0.047 TIME LEFT:  2.00D  GRAD.:     2.142 HEAT: -361.8605
 CYCLE:   314 TIME:   0.047 TIME LEFT:  2.00D  GRAD.:     2.682 HEAT: -361.8674
 CYCLE:   315 TIME:   0.039 TIME LEFT:  2.00D  GRAD.:     2.784 HEAT: -361.8736
 CYCLE:   316 TIME:   0.047 TIME LEFT:  2.00D  GRAD.:     9.555 HEAT: -361.8757
 CYCLE:   317 TIME:   0.055 TIME LEFT:  2.00D  GRAD.:     2.904 HEAT: -361.8958
 CYCLE:   318 TIME:   0.047 TIME LEFT:  2.00D  GRAD.:     2.089 HEAT: -361.9012
 CYCLE:   319 TIME:   0.039 TIME LEFT:  2.00D  GRAD.:     2.721 HEAT: -361.9111
 CYCLE:   320 TIME:   0.055 TIME LEFT:  2.00D  GRAD.:     5.269 HEAT: -361.9226
 CYCLE:   321 TIME:   0.070 TIME LEFT:  2.00D  GRAD.:     3.396 HEAT: -361.9359
 CYCLE:   322 TIME:   0.070 TIME LEFT:  2.00D  GRAD.:     3.051 HEAT: -361.9472
 CYCLE:   323 TIME:   0.055 TIME LEFT:  2.00D  GRAD.:     4.792 HEAT: -361.9568
 CYCLE:   324 TIME:   0.039 TIME LEFT:  2.00D  GRAD.:     3.306 HEAT: -361.9659
 CYCLE:   325 TIME:   0.055 TIME LEFT:  2.00D  GRAD.:     2.696 HEAT: -361.9752
 CYCLE:   326 TIME:   0.055 TIME LEFT:  2.00D  GRAD.:     3.736 HEAT: -361.9832
 CYCLE:   327 TIME:   0.055 TIME LEFT:  2.00D  GRAD.:     2.788 HEAT: -361.9918
 CYCLE:   328 TIME:   0.055 TIME LEFT:  2.00D  GRAD.:     2.585 HEAT: -362.0006
 CYCLE:   329 TIME:   0.055 TIME LEFT:  2.00D  GRAD.:     5.448 HEAT: -362.0080
 CYCLE:   330 TIME:   0.047 TIME LEFT:  2.00D  GRAD.:     2.664 HEAT: -362.0159
 CYCLE:   331 TIME:   0.047 TIME LEFT:  2.00D  GRAD.:     2.042 HEAT: -362.0192
 CYCLE:   332 TIME:   0.047 TIME LEFT:  2.00D  GRAD.:     2.369 HEAT: -362.0256
 CYCLE:   333 TIME:   0.062 TIME LEFT:  2.00D  GRAD.:     4.022 HEAT: -362.0310
 CYCLE:   334 TIME:   0.039 TIME LEFT:  2.00D  GRAD.:     2.786 HEAT: -362.0375
 CYCLE:   335 TIME:   0.062 TIME LEFT:  2.00D  GRAD.:     2.202 HEAT: -362.0456
 CYCLE:   336 TIME:   0.055 TIME LEFT:  2.00D  GRAD.:     2.751 HEAT: -362.0512
 CYCLE:   337 TIME:   0.039 TIME LEFT:  2.00D  GRAD.:     2.920 HEAT: -362.0584
 CYCLE:   338 TIME:   0.055 TIME LEFT:  2.00D  GRAD.:     3.090 HEAT: -362.0668
 CYCLE:   339 TIME:   0.047 TIME LEFT:  2.00D  GRAD.:     2.609 HEAT: -362.0754
 CYCLE:   340 TIME:   0.039 TIME LEFT:  2.00D  GRAD.:     3.534 HEAT: -362.0848
 CYCLE:   341 TIME:   0.047 TIME LEFT:  2.00D  GRAD.:     2.887 HEAT: -362.0940
 CYCLE:   342 TIME:   0.094 TIME LEFT:  2.00D  GRAD.:     2.830 HEAT: -362.1010
 CYCLE:   343 TIME:   0.062 TIME LEFT:  2.00D  GRAD.:     2.308 HEAT: -362.1063
 CYCLE:   344 TIME:   0.055 TIME LEFT:  2.00D  GRAD.:     1.729 HEAT: -362.1096
 CYCLE:   345 TIME:   0.047 TIME LEFT:  2.00D  GRAD.:     2.267 HEAT: -362.1147
 CYCLE:   346 TIME:   0.047 TIME LEFT:  2.00D  GRAD.:     3.112 HEAT: -362.1200
 CYCLE:   347 TIME:   0.047 TIME LEFT:  2.00D  GRAD.:     2.170 HEAT: -362.1251
 CYCLE:   348 TIME:   0.047 TIME LEFT:  2.00D  GRAD.:     2.391 HEAT: -362.1309
 CYCLE:   349 TIME:   0.055 TIME LEFT:  2.00D  GRAD.:     3.282 HEAT: -362.1346
 CYCLE:   350 TIME:   0.047 TIME LEFT:  2.00D  GRAD.:     2.336 HEAT: -362.1387
 CYCLE:   351 TIME:   0.047 TIME LEFT:  2.00D  GRAD.:     2.268 HEAT: -362.1469
 CYCLE:   352 TIME:   0.062 TIME LEFT:  2.00D  GRAD.:     2.542 HEAT: -362.1529
 CYCLE:   353 TIME:   0.055 TIME LEFT:  2.00D  GRAD.:     2.718 HEAT: -362.1623
 CYCLE:   354 TIME:   0.039 TIME LEFT:  2.00D  GRAD.:     3.541 HEAT: -362.1686
 CYCLE:   355 TIME:   0.047 TIME LEFT:  2.00D  GRAD.:     4.441 HEAT: -362.1731
 CYCLE:   356 TIME:   0.047 TIME LEFT:  2.00D  GRAD.:     2.317 HEAT: -362.1793
 CYCLE:   357 TIME:   0.047 TIME LEFT:  2.00D  GRAD.:     1.843 HEAT: -362.1841
 CYCLE:   358 TIME:   0.055 TIME LEFT:  2.00D  GRAD.:     2.867 HEAT: -362.1891
 CYCLE:   359 TIME:   0.039 TIME LEFT:  2.00D  GRAD.:     2.766 HEAT: -362.1967
 CYCLE:   360 TIME:   0.055 TIME LEFT:  2.00D  GRAD.:     2.828 HEAT: -362.2042
 CYCLE:   361 TIME:   0.047 TIME LEFT:  2.00D  GRAD.:     3.468 HEAT: -362.2103
 CYCLE:   362 TIME:   0.086 TIME LEFT:  2.00D  GRAD.:     2.009 HEAT: -362.2149
 CYCLE:   363 TIME:   0.047 TIME LEFT:  2.00D  GRAD.:     1.984 HEAT: -362.2187
 CYCLE:   364 TIME:   0.039 TIME LEFT:  2.00D  GRAD.:     2.370 HEAT: -362.2246
 CYCLE:   365 TIME:   0.055 TIME LEFT:  2.00D  GRAD.:     5.109 HEAT: -362.2294
 CYCLE:   366 TIME:   0.055 TIME LEFT:  2.00D  GRAD.:     2.285 HEAT: -362.2368
 CYCLE:   367 TIME:   0.039 TIME LEFT:  2.00D  GRAD.:     1.901 HEAT: -362.2416
 CYCLE:   368 TIME:   0.055 TIME LEFT:  2.00D  GRAD.:     2.354 HEAT: -362.2467
 CYCLE:   369 TIME:   0.055 TIME LEFT:  2.00D  GRAD.:     4.775 HEAT: -362.2504
 CYCLE:   370 TIME:   0.055 TIME LEFT:  2.00D  GRAD.:     2.123 HEAT: -362.2562
 CYCLE:   371 TIME:   0.039 TIME LEFT:  2.00D  GRAD.:     1.601 HEAT: -362.2601
 CYCLE:   372 TIME:   0.055 TIME LEFT:  2.00D  GRAD.:     2.010 HEAT: -362.2631
 CYCLE:   373 TIME:   0.039 TIME LEFT:  2.00D  GRAD.:     4.639 HEAT: -362.2658
 CYCLE:   374 TIME:   0.055 TIME LEFT:  2.00D  GRAD.:     2.185 HEAT: -362.2707
 CYCLE:   375 TIME:   0.055 TIME LEFT:  2.00D  GRAD.:     2.187 HEAT: -362.2751
 CYCLE:   376 TIME:   0.055 TIME LEFT:  2.00D  GRAD.:     2.759 HEAT: -362.2800
 CYCLE:   377 TIME:   0.039 TIME LEFT:  2.00D  GRAD.:     3.791 HEAT: -362.2883
 CYCLE:   378 TIME:   0.047 TIME LEFT:  2.00D  GRAD.:     3.350 HEAT: -362.2946
 CYCLE:   379 TIME:   0.047 TIME LEFT:  2.00D  GRAD.:     1.908 HEAT: -362.3004
 CYCLE:   380 TIME:   0.047 TIME LEFT:  2.00D  GRAD.:     2.146 HEAT: -362.3046
 CYCLE:   381 TIME:   0.055 TIME LEFT:  2.00D  GRAD.:     2.608 HEAT: -362.3085
 CYCLE:   382 TIME:   0.047 TIME LEFT:  2.00D  GRAD.:     3.004 HEAT: -362.3142
 CYCLE:   383 TIME:   0.086 TIME LEFT:  2.00D  GRAD.:     2.212 HEAT: -362.3196
 CYCLE:   384 TIME:   0.047 TIME LEFT:  2.00D  GRAD.:     1.843 HEAT: -362.3236
 CYCLE:   385 TIME:   0.047 TIME LEFT:  2.00D  GRAD.:     2.222 HEAT: -362.3265
 CYCLE:   386 TIME:   0.039 TIME LEFT:  2.00D  GRAD.:     1.952 HEAT: -362.3289
 CYCLE:   387 TIME:   0.047 TIME LEFT:  2.00D  GRAD.:     1.434 HEAT: -362.3310
 CYCLE:   388 TIME:   0.047 TIME LEFT:  2.00D  GRAD.:     1.651 HEAT: -362.3345
 CYCLE:   389 TIME:   0.047 TIME LEFT:  2.00D  GRAD.:     2.563 HEAT: -362.3361
 CYCLE:   390 TIME:   0.055 TIME LEFT:  2.00D  GRAD.:     1.507 HEAT: -362.3383
 CYCLE:   391 TIME:   0.047 TIME LEFT:  2.00D  GRAD.:     1.244 HEAT: -362.3409
 CYCLE:   392 TIME:   0.055 TIME LEFT:  2.00D  GRAD.:     1.355 HEAT: -362.3430
 CYCLE:   393 TIME:   0.062 TIME LEFT:  2.00D  GRAD.:     5.189 HEAT: -362.3429
 CYCLE:   394 TIME:   0.039 TIME LEFT:  2.00D  GRAD.:     1.463 HEAT: -362.3476
 CYCLE:   395 TIME:   0.047 TIME LEFT:  2.00D  GRAD.:     1.007 HEAT: -362.3487
 CYCLE:   396 TIME:   0.039 TIME LEFT:  2.00D  GRAD.:     1.367 HEAT: -362.3505
 CYCLE:   397 TIME:   0.055 TIME LEFT:  2.00D  GRAD.:     2.200 HEAT: -362.3524
 CYCLE:   398 TIME:   0.039 TIME LEFT:  2.00D  GRAD.:     1.602 HEAT: -362.3548
 CYCLE:   399 TIME:   0.047 TIME LEFT:  2.00D  GRAD.:     1.492 HEAT: -362.3578
 CYCLE:   400 TIME:   0.062 TIME LEFT:  2.00D  GRAD.:     2.193 HEAT: -362.3606
 CYCLE:   401 TIME:   0.039 TIME LEFT:  2.00D  GRAD.:     1.537 HEAT: -362.3634
 CYCLE:   402 TIME:   0.047 TIME LEFT:  2.00D  GRAD.:     1.321 HEAT: -362.3661
 CYCLE:   403 TIME:   0.047 TIME LEFT:  2.00D  GRAD.:     2.426 HEAT: -362.3674
 CYCLE:   404 TIME:   0.078 TIME LEFT:  2.00D  GRAD.:     1.309 HEAT: -362.3692
 CYCLE:   405 TIME:   0.070 TIME LEFT:  2.00D  GRAD.:     1.259 HEAT: -362.3711
 CYCLE:   406 TIME:   0.047 TIME LEFT:  2.00D  GRAD.:     1.601 HEAT: -362.3728
 CYCLE:   407 TIME:   0.047 TIME LEFT:  2.00D  GRAD.:     3.373 HEAT: -362.3736
 CYCLE:   408 TIME:   0.055 TIME LEFT:  2.00D  GRAD.:     1.282 HEAT: -362.3757
 CYCLE:   409 TIME:   0.055 TIME LEFT:  2.00D  GRAD.:     1.208 HEAT: -362.3769
 CYCLE:   410 TIME:   0.055 TIME LEFT:  2.00D  GRAD.:     1.700 HEAT: -362.3786
 CYCLE:   411 TIME:   0.055 TIME LEFT:  2.00D  GRAD.:     1.904 HEAT: -362.3814
 CYCLE:   412 TIME:   0.047 TIME LEFT:  2.00D  GRAD.:     3.183 HEAT: -362.3839
 CYCLE:   413 TIME:   0.047 TIME LEFT:  2.00D  GRAD.:     1.975 HEAT: -362.3874
 CYCLE:   414 TIME:   0.047 TIME LEFT:  2.00D  GRAD.:     1.758 HEAT: -362.3896
 CYCLE:   415 TIME:   0.047 TIME LEFT:  2.00D  GRAD.:     2.525 HEAT: -362.3911
 CYCLE:   416 TIME:   0.047 TIME LEFT:  2.00D  GRAD.:     1.343 HEAT: -362.3930
 CYCLE:   417 TIME:   0.039 TIME LEFT:  2.00D  GRAD.:     1.123 HEAT: -362.3941
 CYCLE:   418 TIME:   0.047 TIME LEFT:  2.00D  GRAD.:     1.149 HEAT: -362.3960
 CYCLE:   419 TIME:   0.047 TIME LEFT:  2.00D  GRAD.:     1.831 HEAT: -362.3972
 CYCLE:   420 TIME:   0.055 TIME LEFT:  2.00D  GRAD.:     1.021 HEAT: -362.3985
 CYCLE:   421 TIME:   0.047 TIME LEFT:  2.00D  GRAD.:     0.903 HEAT: -362.3994
 CYCLE:   422 TIME:   0.055 TIME LEFT:  2.00D  GRAD.:     1.165 HEAT: -362.4004
 CYCLE:   423 TIME:   0.047 TIME LEFT:  2.00D  GRAD.:     2.016 HEAT: -362.4013
 CYCLE:   424 TIME:   0.047 TIME LEFT:  2.00D  GRAD.:     0.976 HEAT: -362.4023
 CYCLE:   425 TIME:   0.086 TIME LEFT:  2.00D  GRAD.:     0.755 HEAT: -362.4029
 CYCLE:   426 TIME:   0.055 TIME LEFT:  2.00D  GRAD.:     0.898 HEAT: -362.4034
 CYCLE:   427 TIME:   0.055 TIME LEFT:  2.00D  GRAD.:     1.083 HEAT: -362.4042
 CYCLE:   428 TIME:   0.047 TIME LEFT:  2.00D  GRAD.:     2.257 HEAT: -362.4049
 CYCLE:   429 TIME:   0.039 TIME LEFT:  2.00D  GRAD.:     0.866 HEAT: -362.4059
 CYCLE:   430 TIME:   0.047 TIME LEFT:  2.00D  GRAD.:     0.642 HEAT: -362.4063
 CYCLE:   431 TIME:   0.047 TIME LEFT:  2.00D  GRAD.:     0.836 HEAT: -362.4067
 CYCLE:   432 TIME:   0.055 TIME LEFT:  2.00D  GRAD.:     0.950 HEAT: -362.4074
 CYCLE:   433 TIME:   0.039 TIME LEFT:  2.00D  GRAD.:     1.865 HEAT: -362.4080
 CYCLE:   434 TIME:   0.055 TIME LEFT:  2.00D  GRAD.:     0.690 HEAT: -362.4088
 CYCLE:   435 TIME:   0.039 TIME LEFT:  2.00D  GRAD.:     0.438 HEAT: -362.4091
 CYCLE:   436 TIME:   0.047 TIME LEFT:  2.00D  GRAD.:     0.583 HEAT: -362.4094
 CYCLE:   437 TIME:   0.047 TIME LEFT:  2.00D  GRAD.:     1.036 HEAT: -362.4098
 CYCLE:   438 TIME:   0.047 TIME LEFT:  2.00D  GRAD.:     0.718 HEAT: -362.4102
 CYCLE:   439 TIME:   0.047 TIME LEFT:  2.00D  GRAD.:     0.578 HEAT: -362.4106
 CYCLE:   440 TIME:   0.055 TIME LEFT:  2.00D  GRAD.:     0.557 HEAT: -362.4108
 CYCLE:   441 TIME:   0.047 TIME LEFT:  2.00D  GRAD.:     0.482 HEAT: -362.4109
 CYCLE:   442 TIME:   0.039 TIME LEFT:  2.00D  GRAD.:     0.506 HEAT: -362.4112
 CYCLE:   443 TIME:   0.047 TIME LEFT:  2.00D  GRAD.:     0.799 HEAT: -362.4114
 CYCLE:   444 TIME:   0.039 TIME LEFT:  2.00D  GRAD.:     0.493 HEAT: -362.4116
 CYCLE:   445 TIME:   0.047 TIME LEFT:  2.00D  GRAD.:     0.455 HEAT: -362.4119
 CYCLE:   446 TIME:   0.039 TIME LEFT:  2.00D  GRAD.:     0.504 HEAT: -362.4121
 CYCLE:   447 TIME:   0.086 TIME LEFT:  2.00D  GRAD.:     0.968 HEAT: -362.4124
 CYCLE:   448 TIME:   0.055 TIME LEFT:  2.00D  GRAD.:     0.474 HEAT: -362.4127
 CYCLE:   449 TIME:   0.039 TIME LEFT:  2.00D  GRAD.:     0.387 HEAT: -362.4129
 CYCLE:   450 TIME:   0.047 TIME LEFT:  2.00D  GRAD.:     0.708 HEAT: -362.4132
 CYCLE:   451 TIME:   0.039 TIME LEFT:  2.00D  GRAD.:     0.764 HEAT: -362.4134
 CYCLE:   452 TIME:   0.047 TIME LEFT:  2.00D  GRAD.:     0.363 HEAT: -362.4135
 CYCLE:   453 TIME:   0.055 TIME LEFT:  2.00D  GRAD.:     0.274 HEAT: -362.4136
 CYCLE:   454 TIME:   0.047 TIME LEFT:  2.00D  GRAD.:     0.334 HEAT: -362.4137
 CYCLE:   455 TIME:   0.055 TIME LEFT:  2.00D  GRAD.:     0.535 HEAT: -362.4138
 CYCLE:   456 TIME:   0.047 TIME LEFT:  2.00D  GRAD.:     0.476 HEAT: -362.4139
 CYCLE:   457 TIME:   0.039 TIME LEFT:  2.00D  GRAD.:     0.255 HEAT: -362.4140
 CYCLE:   458 TIME:   0.047 TIME LEFT:  2.00D  GRAD.:     0.290 HEAT: -362.4141
 CYCLE:   459 TIME:   0.047 TIME LEFT:  2.00D  GRAD.:     0.363 HEAT: -362.4142
 CYCLE:   460 TIME:   0.039 TIME LEFT:  2.00D  GRAD.:     1.034 HEAT: -362.4143
 CYCLE:   461 TIME:   0.047 TIME LEFT:  2.00D  GRAD.:     0.309 HEAT: -362.4145
 CYCLE:   462 TIME:   0.047 TIME LEFT:  2.00D  GRAD.:     0.232 HEAT: -362.4145
 CYCLE:   463 TIME:   0.055 TIME LEFT:  2.00D  GRAD.:     0.299 HEAT: -362.4146
 CYCLE:   464 TIME:   0.039 TIME LEFT:  2.00D  GRAD.:     0.380 HEAT: -362.4147
 CYCLE:   465 TIME:   0.047 TIME LEFT:  2.00D  GRAD.:     0.655 HEAT: -362.4148
 CYCLE:   466 TIME:   0.039 TIME LEFT:  2.00D  GRAD.:     0.287 HEAT: -362.4149
 CYCLE:   467 TIME:   0.047 TIME LEFT:  2.00D  GRAD.:     0.281 HEAT: -362.4150
 CYCLE:   468 TIME:   0.039 TIME LEFT:  2.00D  GRAD.:     0.340 HEAT: -362.4151
 CYCLE:   469 TIME:   0.062 TIME LEFT:  2.00D  GRAD.:     0.764 HEAT: -362.4152
 CYCLE:   470 TIME:   0.070 TIME LEFT:  2.00D  GRAD.:     0.352 HEAT: -362.4153
 CYCLE:   471 TIME:   0.047 TIME LEFT:  2.00D  GRAD.:     0.253 HEAT: -362.4154
 CYCLE:   472 TIME:   0.055 TIME LEFT:  2.00D  GRAD.:     0.312 HEAT: -362.4155
 CYCLE:   473 TIME:   0.047 TIME LEFT:  2.00D  GRAD.:     0.366 HEAT: -362.4156
 CYCLE:   474 TIME:   0.039 TIME LEFT:  2.00D  GRAD.:     0.263 HEAT: -362.4156
 CYCLE:   475 TIME:   0.062 TIME LEFT:  2.00D  GRAD.:     0.268 HEAT: -362.4157
 CYCLE:   476 TIME:   0.055 TIME LEFT:  2.00D  GRAD.:     0.711 HEAT: -362.4158
 CYCLE:   477 TIME:   0.055 TIME LEFT:  2.00D  GRAD.:     0.366 HEAT: -362.4159
 CYCLE:   478 TIME:   0.055 TIME LEFT:  2.00D  GRAD.:     0.267 HEAT: -362.4160
 CYCLE:   479 TIME:   0.047 TIME LEFT:  2.00D  GRAD.:     0.369 HEAT: -362.4162
 CYCLE:   480 TIME:   0.055 TIME LEFT:  2.00D  GRAD.:     0.498 HEAT: -362.4163
 CYCLE:   481 TIME:   0.047 TIME LEFT:  2.00D  GRAD.:     0.428 HEAT: -362.4165
 CYCLE:   482 TIME:   0.055 TIME LEFT:  2.00D  GRAD.:     0.430 HEAT: -362.4166
 CYCLE:   483 TIME:   0.055 TIME LEFT:  2.00D  GRAD.:     0.608 HEAT: -362.4168
 CYCLE:   484 TIME:   0.039 TIME LEFT:  2.00D  GRAD.:     0.592 HEAT: -362.4169
 CYCLE:   485 TIME:   0.047 TIME LEFT:  2.00D  GRAD.:     0.558 HEAT: -362.4170
 CYCLE:   486 TIME:   0.055 TIME LEFT:  2.00D  GRAD.:     2.339 HEAT: -362.4168
 CYCLE:   487 TIME:   0.055 TIME LEFT:  2.00D  GRAD.:     6.114 HEAT: -362.4114
 CYCLE:   488 TIME:   0.047 TIME LEFT:  2.00D  GRAD.:     4.656 HEAT: -362.4143
 CYCLE:   489 TIME:   0.039 TIME LEFT:  2.00D  GRAD.:     3.035 HEAT: -362.4163
 CYCLE:   490 TIME:   0.102 TIME LEFT:  2.00D  GRAD.:     1.935 HEAT: -362.4171
 CYCLE:   491 TIME:   0.047 TIME LEFT:  2.00D  GRAD.:     6.837 HEAT: -362.4082
 CYCLE:   492 TIME:   0.055 TIME LEFT:  2.00D  GRAD.:     3.393 HEAT: -362.4155
 CYCLE:   493 TIME:   0.055 TIME LEFT:  2.00D  GRAD.:     4.026 HEAT: -362.4147
 CYCLE:   494 TIME:   0.039 TIME LEFT:  2.00D  GRAD.:     2.476 HEAT: -362.4158
 CYCLE:   495 TIME:   0.047 TIME LEFT:  2.00D  GRAD.:     2.188 HEAT: -362.4172
 CYCLE:   496 TIME:   0.055 TIME LEFT:  2.00D  GRAD.:     4.343 HEAT: -362.4147
 CYCLE:   497 TIME:   0.055 TIME LEFT:  2.00D  GRAD.:     0.884 HEAT: -362.4183
 CYCLE:   498 TIME:   0.047 TIME LEFT:  2.00D  GRAD.:     1.478 HEAT: -362.4172
 CYCLE:   499 TIME:   0.047 TIME LEFT:  2.00D  GRAD.:     1.144 HEAT: -362.4181
 CYCLE:   500 TIME:   0.047 TIME LEFT:  2.00D  GRAD.:     0.739 HEAT: -362.4187
 CYCLE:   501 TIME:   0.047 TIME LEFT:  2.00D  GRAD.:     0.884 HEAT: -362.4188
 CYCLE:   502 TIME:   0.047 TIME LEFT:  2.00D  GRAD.:     0.287 HEAT: -362.4189
 CYCLE:   503 TIME:   0.047 TIME LEFT:  2.00D  GRAD.:     0.266 HEAT: -362.4190
 CYCLE:   504 TIME:   0.055 TIME LEFT:  2.00D  GRAD.:     0.546 HEAT: -362.4193
 CYCLE:   505 TIME:   0.055 TIME LEFT:  2.00D  GRAD.:     0.674 HEAT: -362.4196
 CYCLE:   506 TIME:   0.039 TIME LEFT:  2.00D  GRAD.:     1.992 HEAT: -362.4191
 CYCLE:   507 TIME:   0.047 TIME LEFT:  2.00D  GRAD.:     0.266 HEAT: -362.4198
 CYCLE:   508 TIME:   0.047 TIME LEFT:  2.00D  GRAD.:     0.213 HEAT: -362.4198
 CYCLE:   509 TIME:   0.039 TIME LEFT:  2.00D  GRAD.:     0.391 HEAT: -362.4200
 CYCLE:   510 TIME:   0.047 TIME LEFT:  2.00D  GRAD.:     0.446 HEAT: -362.4200
 CYCLE:   511 TIME:   0.102 TIME LEFT:  2.00D  GRAD.:     0.737 HEAT: -362.4201
 CYCLE:   512 TIME:   0.055 TIME LEFT:  2.00D  GRAD.:     0.307 HEAT: -362.4203
 CYCLE:   513 TIME:   0.055 TIME LEFT:  2.00D  GRAD.:     0.226 HEAT: -362.4203
 CYCLE:   514 TIME:   0.047 TIME LEFT:  2.00D  GRAD.:     0.361 HEAT: -362.4204
 CYCLE:   515 TIME:   0.047 TIME LEFT:  2.00D  GRAD.:     0.489 HEAT: -362.4205
 CYCLE:   516 TIME:   0.047 TIME LEFT:  2.00D  GRAD.:     0.580 HEAT: -362.4206
 CYCLE:   517 TIME:   0.047 TIME LEFT:  2.00D  GRAD.:     0.403 HEAT: -362.4207
 CYCLE:   518 TIME:   0.047 TIME LEFT:  2.00D  GRAD.:     0.301 HEAT: -362.4208
 CYCLE:   519 TIME:   0.039 TIME LEFT:  2.00D  GRAD.:     0.304 HEAT: -362.4209
 CYCLE:   520 TIME:   0.055 TIME LEFT:  2.00D  GRAD.:     0.369 HEAT: -362.4210
 CYCLE:   521 TIME:   0.047 TIME LEFT:  2.00D  GRAD.:     0.461 HEAT: -362.4211
 CYCLE:   522 TIME:   0.047 TIME LEFT:  2.00D  GRAD.:     0.607 HEAT: -362.4212
 CYCLE:   523 TIME:   0.039 TIME LEFT:  2.00D  GRAD.:     0.974 HEAT: -362.4212
 CYCLE:   524 TIME:   0.047 TIME LEFT:  2.00D  GRAD.:     0.598 HEAT: -362.4213
 CYCLE:   525 TIME:   0.039 TIME LEFT:  2.00D  GRAD.:     0.460 HEAT: -362.4214
 CYCLE:   526 TIME:   0.047 TIME LEFT:  2.00D  GRAD.:     0.381 HEAT: -362.4214
 CYCLE:   527 TIME:   0.047 TIME LEFT:  2.00D  GRAD.:     0.496 HEAT: -362.4215
 CYCLE:   528 TIME:   0.039 TIME LEFT:  2.00D  GRAD.:     0.222 HEAT: -362.4216
 CYCLE:   529 TIME:   0.039 TIME LEFT:  2.00D  GRAD.:     0.425 HEAT: -362.4216
 CYCLE:   530 TIME:   0.047 TIME LEFT:  2.00D  GRAD.:     0.309 HEAT: -362.4217
 CYCLE:   531 TIME:   0.055 TIME LEFT:  2.00D  GRAD.:     0.301 HEAT: -362.4218
 CYCLE:   532 TIME:   0.070 TIME LEFT:  2.00D  GRAD.:     0.391 HEAT: -362.4219
 CYCLE:   533 TIME:   0.062 TIME LEFT:  2.00D  GRAD.:     0.306 HEAT: -362.4220
 CYCLE:   534 TIME:   0.047 TIME LEFT:  2.00D  GRAD.:     0.354 HEAT: -362.4221
 CYCLE:   535 TIME:   0.047 TIME LEFT:  2.00D  GRAD.:     0.500 HEAT: -362.4222
 CYCLE:   536 TIME:   0.039 TIME LEFT:  2.00D  GRAD.:     0.284 HEAT: -362.4222
 CYCLE:   537 TIME:   0.055 TIME LEFT:  2.00D  GRAD.:     0.252 HEAT: -362.4223
 CYCLE:   538 TIME:   0.047 TIME LEFT:  2.00D  GRAD.:     0.388 HEAT: -362.4224
 CYCLE:   539 TIME:   0.047 TIME LEFT:  2.00D  GRAD.:     0.641 HEAT: -362.4225
 CYCLE:   540 TIME:   0.039 TIME LEFT:  2.00D  GRAD.:     0.341 HEAT: -362.4227
 CYCLE:   541 TIME:   0.047 TIME LEFT:  2.00D  GRAD.:     0.251 HEAT: -362.4228
 CYCLE:   542 TIME:   0.047 TIME LEFT:  2.00D  GRAD.:     0.361 HEAT: -362.4229
 CYCLE:   543 TIME:   0.047 TIME LEFT:  2.00D  GRAD.:     0.535 HEAT: -362.4229
 CYCLE:   544 TIME:   0.039 TIME LEFT:  2.00D  GRAD.:     0.294 HEAT: -362.4230
 CYCLE:   545 TIME:   0.039 TIME LEFT:  2.00D  GRAD.:     0.234 HEAT: -362.4231
 CYCLE:   546 TIME:   0.047 TIME LEFT:  2.00D  GRAD.:     0.288 HEAT: -362.4232
 CYCLE:   547 TIME:   0.055 TIME LEFT:  2.00D  GRAD.:     0.430 HEAT: -362.4233
 CYCLE:   548 TIME:   0.047 TIME LEFT:  2.00D  GRAD.:     0.486 HEAT: -362.4233
 CYCLE:   549 TIME:   0.055 TIME LEFT:  2.00D  GRAD.:     0.167 HEAT: -362.4234

 -------------------------------------------------------------------------------
 AUX LARGE CHARGE=0 SINGLET  PM6  OPT PRECISE PRTXYZ
 CN288.pdb
 51


     HERBERTS TEST WAS SATISFIED IN BFGS                      
     SCF FIELD WAS ACHIEVED                                   


                              PM6 CALCULATION
                                                       MOPAC2016 (Version: 20.225L)
                                                       Fri Aug 14 20:42:27 2020
                                                       No. of days remaining = 364




          FINAL HEAT OF FORMATION =       -362.42336 KCAL/MOL =   -1516.37935 KJ/MOL


          TOTAL ENERGY            =      -5757.79557 EV
          ELECTRONIC ENERGY       =     -45638.90730 EV  POINT GROUP:     C1  
          CORE-CORE REPULSION     =      39881.11173 EV
          COSMO AREA              =        402.15 SQUARE ANGSTROMS
          COSMO VOLUME            =        468.53 CUBIC ANGSTROMS

          GRADIENT NORM           =          0.16732 = 0.02343 PER ATOM
          IONIZATION POTENTIAL    =          8.799218 EV
          HOMO LUMO ENERGIES (EV) =         -8.799 -0.702
          NO. OF FILLED LEVELS    =         82
          MOLECULAR WEIGHT        =        432.3830

          MOLECULAR DIMENSIONS (Angstroms)

            Atom       Atom       Distance
            H    51    H    45    16.62475
            H    50    H    35     6.93897
            H    39    O    25     5.47308


          SCF CALCULATIONS        =        550
 
          WALL-CLOCK TIME         =         28.047 SECONDS
          COMPUTATION TIME        =         52.422 SECONDS




   ATOM   CHEMICAL          X               Y               Z
  NUMBER   SYMBOL      (ANGSTROMS)     (ANGSTROMS)     (ANGSTROMS)
 
     1       C          8.21264284  * -11.30876909  *  -1.80322125  *
     2       C          8.08692833  * -12.45981041  *  -1.01683857  *
     3       C          9.07347953  * -12.86237146  *  -0.10102549  *
     4       C         10.21077017  * -12.05914346  *  -0.00472407  *
     5       C         10.41637008  * -10.88985133  *  -0.76281610  *
     6       C          9.38012660  * -10.54084411  *  -1.66647731  *
     7       O         11.14558082  * -12.50445271  *   0.91164960  *
     8       C         12.33261156  * -11.79530588  *   1.03118833  *
     9       C         12.63204883  * -10.67914040  *   0.34033062  *
    10       C         11.63425922  * -10.07580470  *  -0.60151498  *
    11       O         11.80809070  *  -9.01320507  *  -1.15530339  *
    12       C         13.94023589  * -10.02620814  *   0.49831673  *
    13       C         15.11287920  * -10.79737463  *   0.54094495  *
    14       C         16.36000623  * -10.19190836  *   0.71132152  *
    15       C         16.40981772  *  -8.79682350  *   0.82972264  *
    16       C         15.25455370  *  -7.99687101  *   0.77361844  *
    17       C         14.02524438  *  -8.62081820  *   0.60111389  *
    18       O          9.57780365  *  -9.41861690  *  -2.39389127  *
    19       O          7.01195336  * -13.30596972  *  -1.05010128  *
    20       O          5.37177883  * -11.88588216  *  -1.86614682  *
    21       C          5.95364741  * -13.14669266  *  -2.05592805  *
    22       C          4.13339929  * -12.80503352  *   0.09943758  *
    23       C          4.13912989  * -11.82771300  *  -1.09562849  *
    24       O          2.79480417  * -12.84301494  *   0.60537339  *
    25       O          5.31491603  * -14.88221019  *   0.59845969  *
    26       O          4.05850047  * -14.32676729  *  -2.75812587  *
    27       C          4.07498949  * -10.35914038  *  -0.64439196  *
    28       C          5.05794453  * -14.36412080  *  -1.73522989  *
    29       C          4.42711343  * -14.26284661  *  -0.32217861  *
    30       O          2.84153213  * -10.14952659  *   0.05517165  *
    31       O         17.58789591  *  -8.11167288  *   1.00747216  *
    32       H          7.41368673  * -10.99777889  *  -2.46917928  *
    33       H          8.96309533  * -13.76141835  *   0.49785847  *
    34       H         12.93055943  * -12.32064365  *   1.77283756  *
    35       H         15.06065254  * -11.88002044  *   0.42871205  *
    36       H         17.26313579  * -10.79130294  *   0.74261677  *
    37       H         15.34253706  *  -6.91526258  *   0.85544666  *
    38       H         13.11362394  *  -8.01943716  *   0.52596874  *
    39       H          8.82083277  *  -9.22155366  *  -3.01343677  *
    40       H          6.39967305  * -13.12019764  *  -3.06978462  *
    41       H          4.82807656  * -12.48380944  *   0.90839324  *
    42       H          3.31859224  * -12.08927705  *  -1.80619649  *
    43       H          2.54925081  * -11.94353887  *   0.96491815  *
    44       H          6.19414615  * -14.42067728  *   0.60633364  *
    45       H          3.49806606  * -15.13449795  *  -2.71277815  *
    46       H          4.84885447  * -10.11157723  *   0.10872751  *
    47       H          4.16690149  *  -9.66579060  *  -1.49809983  *
    48       H          5.64780073  * -15.30995505  *  -1.81515814  *
    49       H          3.49469667  * -14.87589353  *  -0.23586104  *
    50       H          2.09001739  * -10.10960757  *  -0.57756214  *
    51       H         18.37074640  *  -8.71385001  *   1.02366590  *

                             CARTESIAN COORDINATES

   1    C        8.212642838   -11.308769088    -1.803221251
   2    C        8.086928331   -12.459810414    -1.016838570
   3    C        9.073479530   -12.862371461    -0.101025488
   4    C       10.210770167   -12.059143457    -0.004724067
   5    C       10.416370079   -10.889851327    -0.762816101
   6    C        9.380126601   -10.540844106    -1.666477312
   7    O       11.145580821   -12.504452715     0.911649605
   8    C       12.332611562   -11.795305884     1.031188330
   9    C       12.632048829   -10.679140399     0.340330622
  10    C       11.634259215   -10.075804698    -0.601514983
  11    O       11.808090702    -9.013205073    -1.155303391
  12    C       13.940235892   -10.026208138     0.498316725
  13    C       15.112879202   -10.797374633     0.540944949
  14    C       16.360006231   -10.191908359     0.711321516
  15    C       16.409817716    -8.796823505     0.829722636
  16    C       15.254553700    -7.996871006     0.773618438
  17    C       14.025244376    -8.620818205     0.601113891
  18    O        9.577803648    -9.418616896    -2.393891272
  19    O        7.011953362   -13.305969719    -1.050101279
  20    O        5.371778828   -11.885882161    -1.866146824
  21    C        5.953647406   -13.146692664    -2.055928047
  22    C        4.133399287   -12.805033516     0.099437576
  23    C        4.139129891   -11.827713002    -1.095628486
  24    O        2.794804168   -12.843014945     0.605373391
  25    O        5.314916034   -14.882210188     0.598459691
  26    O        4.058500471   -14.326767286    -2.758125866
  27    C        4.074989488   -10.359140385    -0.644391957
  28    C        5.057944535   -14.364120800    -1.735229894
  29    C        4.427113430   -14.262846614    -0.322178605
  30    O        2.841532125   -10.149526593     0.055171646
  31    O       17.587895910    -8.111672877     1.007472160
  32    H        7.413686730   -10.997778894    -2.469179279
  33    H        8.963095331   -13.761418349     0.497858468
  34    H       12.930559429   -12.320643652     1.772837564
  35    H       15.060652537   -11.880020437     0.428712048
  36    H       17.263135788   -10.791302943     0.742616768
  37    H       15.342537056    -6.915262576     0.855446663
  38    H       13.113623938    -8.019437160     0.525968743
  39    H        8.820832767    -9.221553656    -3.013436767
  40    H        6.399673048   -13.120197639    -3.069784625
  41    H        4.828076560   -12.483809442     0.908393237
  42    H        3.318592241   -12.089277051    -1.806196486
  43    H        2.549250813   -11.943538875     0.964918149
  44    H        6.194146155   -14.420677282     0.606333641
  45    H        3.498066060   -15.134497946    -2.712778154
  46    H        4.848854474   -10.111577235     0.108727506
  47    H        4.166901494    -9.665790597    -1.498099833
  48    H        5.647800733   -15.309955046    -1.815158142
  49    H        3.494696671   -14.875893533    -0.235861043
  50    H        2.090017390   -10.109607572    -0.577562143
  51    H       18.370746401    -8.713850009     1.023665902


           Empirical Formula: C21 H20 O10  =    51 atoms



      MOLECULAR POINT GROUP   :   C1  


                  EIGENVALUES  
 -32.35707 -32.09766 -31.97938 -31.55522 -31.41288 -31.06218 -30.97941 -30.60869
 -30.48735 -30.29699 -29.95812 -29.79435 -28.44232 -27.92430 -27.35635 -26.78050
 -26.57747 -26.22595 -25.58181 -25.08584 -24.01345 -23.59795 -23.09369 -23.03912
 -22.30255 -21.96793 -21.03249 -20.69750 -20.42563 -19.57807 -19.20595 -18.87576
 -18.72295 -18.59075 -18.47199 -18.26562 -18.00197 -17.78969 -17.22994 -16.77383
 -16.57560 -16.50430 -16.44197 -16.16551 -15.86537 -15.57956 -15.53154 -15.26034
 -15.18886 -15.04412 -14.98145 -14.94847 -14.82388 -14.63561 -14.58577 -14.47149
 -14.34490 -14.28386 -14.09454 -13.87496 -13.86311 -13.73570 -13.51730 -13.44560
 -13.23709 -13.00962 -12.81114 -12.46656 -12.24026 -12.05890 -12.03758 -11.92147
 -11.72792 -11.38062 -10.84882 -10.77068 -10.73134 -10.21911 -10.04614  -9.96749
  -9.75518  -8.79922  -0.70221  -0.63546  -0.08515   0.07055   0.13222   0.40044
   0.47778   0.79204   1.25405   1.48150   1.64611   1.80898   1.86725   1.96699
   2.02997   2.13317   2.26395   2.33240   2.43300   2.62817   2.70120   2.75331
   2.79063   2.98774   3.01754   3.13874   3.32347   3.38250   3.56497   3.72097
   3.96468   4.00480   4.08181   4.18428   4.20841   4.23788   4.29764   4.34899
   4.44970   4.48587   4.57374   4.68541   4.69832   4.70465   4.79317   4.81706
   4.85648   4.98447   4.99824   5.00842   5.07578   5.18457   5.32204   5.33286
   5.48094   5.59022   5.60905   5.71089   5.88833   5.89191   6.22813   6.31196


              NET ATOMIC CHARGES AND DIPOLE CONTRIBUTIONS

  ATOM NO.   TYPE          CHARGE      No. of ELECS.   s-Pop       p-Pop       
    1          C          -0.657354        4.6574     1.11102     3.54633
    2          C           0.567018        3.4330     1.06988     2.36310
    3          C          -0.557048        4.5570     1.10021     3.45683
    4          C           0.507386        3.4926     1.07868     2.41394
    5          C          -0.577027        4.5770     1.10902     3.46801
    6          C           0.563808        3.4362     1.07121     2.36498
    7          O          -0.310289        6.3103     1.83053     4.47976
    8          C           0.136704        3.8633     1.12540     2.73790
    9          C          -0.285724        4.2857     1.11774     3.16798
   10          C           0.632423        3.3676     1.06687     2.30071
   11          O          -0.476167        6.4762     1.85177     4.62440
   12          C          -0.045319        4.0453     1.07259     2.97273
   13          C          -0.056062        4.0561     1.10426     2.95180
   14          C          -0.364147        4.3641     1.10595     3.25820
   15          C           0.340210        3.6598     1.08147     2.57832
   16          C          -0.290334        4.2903     1.10548     3.18486
   17          C          -0.026949        4.0269     1.11108     2.91587
   18          O          -0.399607        6.3996     1.80654     4.59307
   19          O          -0.488017        6.4880     1.83549     4.65252
   20          O          -0.460781        6.4608     1.84737     4.61341
   21          C           0.361134        3.6389     1.12764     2.51122
   22          C           0.060647        3.9394     1.12130     2.81805
   23          C           0.042731        3.9573     1.13567     2.82160
   24          O          -0.552676        6.5527     1.82918     4.72349
   25          O          -0.529167        6.5292     1.82334     4.70583
   26          O          -0.533620        6.5336     1.82190     4.71172
   27          C          -0.044467        4.0445     1.10776     2.93671
   28          C          -0.001993        4.0020     1.13171     2.87028
   29          C           0.096574        3.9034     1.11745     2.78598
   30          O          -0.536431        6.5364     1.82161     4.71482
   31          O          -0.471262        6.4713     1.80630     4.66496
   32          H           0.215190        0.7848     0.78481
   33          H           0.219541        0.7805     0.78046
   34          H           0.177934        0.8221     0.82207
   35          H           0.141782        0.8582     0.85822
   36          H           0.166954        0.8330     0.83305
   37          H           0.184215        0.8158     0.81578
   38          H           0.169954        0.8300     0.83005
   39          H           0.327230        0.6728     0.67277
   40          H           0.157686        0.8423     0.84231
   41          H           0.147162        0.8528     0.85284
   42          H           0.161800        0.8382     0.83820
   43          H           0.338377        0.6616     0.66162
   44          H           0.327092        0.6729     0.67291
   45          H           0.326983        0.6730     0.67302
   46          H           0.168079        0.8319     0.83192
   47          H           0.141209        0.8588     0.85879
   48          H           0.164877        0.8351     0.83512
   49          H           0.182137        0.8179     0.81786
   50          H           0.315649        0.6844     0.68435
   51          H           0.321955        0.6780     0.67805
 DIPOLE           X         Y         Z       TOTAL
 POINT-CHG.    -1.464    -2.670    -1.767     3.520
 HYBRID        -0.364     0.095    -0.257     0.456
 SUM           -1.828    -2.574    -2.023     3.750


          ATOMIC ORBITAL ELECTRON POPULATIONS

     Atom    s        px        py        pz   
    1  C   1.11102   1.14432   1.13641   1.26560
    2  C   1.06988   0.74951   0.79463   0.81896
    3  C   1.10021   1.05305   1.18678   1.21701
    4  C   1.07868   0.80328   0.84724   0.76342
    5  C   1.10902   1.13279   1.13756   1.19767
    6  C   1.07121   0.85460   0.74351   0.76687
    7  O   1.83053   1.33995   1.56241   1.57740
    8  C   1.12540   0.81661   0.93628   0.98501
    9  C   1.11774   1.05107   1.03417   1.08274
   10  C   1.06687   0.79640   0.77778   0.72653
   11  O   1.85177   1.77930   1.33348   1.51162
   12  C   1.07259   0.92271   0.96859   1.08143
   13  C   1.10426   0.95345   1.05385   0.94450
   14  C   1.10595   1.06923   1.02021   1.16876
   15  C   1.08147   0.80374   0.89461   0.87997
   16  C   1.10548   0.97521   1.09404   1.11561
   17  C   1.11108   1.03112   0.98513   0.89961
   18  O   1.80654   1.54788   1.47999   1.56519
   19  O   1.83549   1.40993   1.61185   1.63074
   20  O   1.84737   1.47825   1.40011   1.73505
   21  C   1.12764   0.79192   0.80645   0.91285
   22  C   1.12130   0.84702   0.97866   0.99238
   23  C   1.13567   0.86141   0.98950   0.97068
   24  O   1.82918   1.38261   1.50015   1.84073
   25  O   1.82334   1.38331   1.64956   1.67295
   26  O   1.82190   1.54344   1.57456   1.59372
   27  C   1.10776   0.86766   0.99553   1.07351
   28  C   1.13171   0.90974   1.06080   0.89974
   29  C   1.11745   0.96722   0.96799   0.85076
   30  O   1.82161   1.28566   1.94864   1.48052
   31  O   1.80630   1.28255   1.49904   1.88337
   32  H   0.78481
   33  H   0.78046
   34  H   0.82207
   35  H   0.85822
   36  H   0.83305
   37  H   0.81578
   38  H   0.83005
   39  H   0.67277
   40  H   0.84231
   41  H   0.85284
   42  H   0.83820
   43  H   0.66162
   44  H   0.67291
   45  H   0.67302
   46  H   0.83192
   47  H   0.85879
   48  H   0.83512
   49  H   0.81786
   50  H   0.68435
   51  H   0.67805

 **********************
 *                    *
 * JOB ENDED NORMALLY *
 *                    *
 **********************



 TOTAL JOB TIME:            28.14 SECONDS

 == MOPAC DONE ==
