 *******************************************************************************
 ** Site#: 35412        For non-commercial use only    Version 20.225L 64BITS **
 *******************************************************************************
 ** Cite this program as: MOPAC2016, Version: 20.225L, James J. P. Stewart,   **
 ** Stewart Computational Chemistry, web: HTTP://OpenMOPAC.net. Days left: 364**
 *******************************************************************************
 **                                                                           **
 **                                MOPAC2016                                  **
 **                                                                           **
 *******************************************************************************

                              PM6 CALCULATION RESULTS

 *******************************************************************************
 *  CALCULATION DONE:                                Fri Aug 14 20:41:43 2020  *
 *  PM6        - The PM6 Hamiltonian to be used
 *  SINGLET    - SPIN STATE DEFINED AS A SINGLET
 *  OPT        - OPTIMIZE COORDINATES OF ALL ATOMS
 *
 *
 *
 *                 CHARGE ON SYSTEM = 0
 *
 *
 *
 *  PRECISE    - CRITERIA TO BE INCREASED BY 100 TIMES
 *  T=         - A TIME OF 172800.0 SECONDS REQUESTED
 *  DUMP=N     - RESTART FILE WRITTEN EVERY 7200.0 SECONDS REQUESTED
 *  AUX        - OUTPUT AUXILIARY INFORMATION
 *  PRTXYZ     - PRINT CARTESIAN COORDINATES
 *  LARGE      - EXPANDED OUTPUT TO BE PRINTED
 *******************************************************************************
 AUX LARGE CHARGE=0 SINGLET  PM6  OPT PRECISE PRTXYZ
 CN282.pdb
 22
   ATOM   CHEMICAL          X               Y               Z
  NUMBER   SYMBOL      (ANGSTROMS)     (ANGSTROMS)     (ANGSTROMS)
 
     1       C          4.27000000  *  -8.23400000  *   0.01200000  *
     2       C          4.24300000  *  -9.63300000  *   0.01600000  *
     3       C          5.42700000  * -10.37200000  *   0.00700000  *
     4       C          6.62500000  *  -9.67600000  *  -0.00500000  *
     5       C          6.64500000  *  -8.30200000  *  -0.00800000  *
     6       C          5.48400000  *  -7.54700000  *   0.00000000  *
     7       N          7.86800000  * -10.15500000  *  -0.01400000  *
     8       C          8.69800000  *  -9.10000000  *  -0.02400000  *
     9       C          7.96800000  *  -7.91200000  *  -0.02100000  *
    10       C          8.47900000  *  -6.47200000  *  -0.02900000  *
    11       C         10.02300000  *  -6.36300000  *   0.02100000  *
    12       O         10.41900000  *  -4.96500000  *   0.01300000  *
    13       H          3.35800000  *  -7.69100000  *   0.01900000  *
    14       H          3.30800000  * -10.13900000  *   0.02500000  *
    15       H          5.40900000  * -11.43400000  *   0.01000000  *
    16       H          5.51800000  *  -6.48500000  *  -0.00200000  *
    17       H          9.75800000  *  -9.16700000  *  -0.03300000  *
    18       H          8.09100000  *  -5.98000000  *  -0.93300000  *
    19       H          8.02700000  *  -5.94700000  *   0.82500000  *
    20       H         10.39200000  *  -6.83900000  *   0.94200000  *
    21       H         10.45600000  *  -6.87000000  *  -0.85300000  *
    22       H         10.10700000  *  -4.52800000  *  -0.82100000  *
 


          CARTESIAN COORDINATES 

    NO.       ATOM           X           Y           Z

     1         C          4.2700     -8.2340      0.0120
     2         C          4.2430     -9.6330      0.0160
     3         C          5.4270    -10.3720      0.0070
     4         C          6.6250     -9.6760     -0.0050
     5         C          6.6450     -8.3020     -0.0080
     6         C          5.4840     -7.5470      0.0000
     7         N          7.8680    -10.1550     -0.0140
     8         C          8.6980     -9.1000     -0.0240
     9         C          7.9680     -7.9120     -0.0210
    10         C          8.4790     -6.4720     -0.0290
    11         C         10.0230     -6.3630      0.0210
    12         O         10.4190     -4.9650      0.0130
    13         H          3.3580     -7.6910      0.0190
    14         H          3.3080    -10.1390      0.0250
    15         H          5.4090    -11.4340      0.0100
    16         H          5.5180     -6.4850     -0.0020
    17         H          9.7580     -9.1670     -0.0330
    18         H          8.0910     -5.9800     -0.9330
    19         H          8.0270     -5.9470      0.8250
    20         H         10.3920     -6.8390      0.9420
    21         H         10.4560     -6.8700     -0.8530
    22         H         10.1070     -4.5280     -0.8210

 General Reference for PM6:
 "Optimization of Parameters for Semiempirical Methods V: Modification of NDDO Approximations
 and Application to 70 Elements", J. J. P. Stewart, J. Mol. Mod., 13, 1173-1213 (2007)
 URL: https://link.springer.com/article/10.1007/s00894-007-0233-4

           Empirical Formula: C10 H10 N O  =    22 atoms



      MOLECULAR POINT GROUP   :   C1  

          SINGLET SPECIFIED WITH ODD NUMBER OF ELECTRONS, CORRECT FAULT

 ******************************************************************************
 *                                                                            *
 *     Error and normal termination messages reported in this calculation     *
 *                                                                            *
 * SINGLET SPECIFIED WITH ODD NUMBER OF ELECTRONS, CORRECT FAULT              *
 * JOB ENDED NORMALLY                                                         *
 *                                                                            *
 ******************************************************************************



 TOTAL JOB TIME:             0.01 SECONDS

 == MOPAC DONE ==
