 *******************************************************************************
 ** Site#: 35412        For non-commercial use only    Version 20.225L 64BITS **
 *******************************************************************************
 ** Cite this program as: MOPAC2016, Version: 20.225L, James J. P. Stewart,   **
 ** Stewart Computational Chemistry, web: HTTP://OpenMOPAC.net. Days left: 364**
 *******************************************************************************
 **                                                                           **
 **                                MOPAC2016                                  **
 **                                                                           **
 *******************************************************************************

                              PM6 CALCULATION RESULTS

 *******************************************************************************
 *  CALCULATION DONE:                                Fri Aug 14 20:41:43 2020  *
 *  PM6        - The PM6 Hamiltonian to be used
 *  SINGLET    - SPIN STATE DEFINED AS A SINGLET
 *  OPT        - OPTIMIZE COORDINATES OF ALL ATOMS
 *
 *
 *
 *                 CHARGE ON SYSTEM = 0
 *
 *
 *
 *  PRECISE    - CRITERIA TO BE INCREASED BY 100 TIMES
 *  T=         - A TIME OF 172800.0 SECONDS REQUESTED
 *  DUMP=N     - RESTART FILE WRITTEN EVERY 7200.0 SECONDS REQUESTED
 *  AUX        - OUTPUT AUXILIARY INFORMATION
 *  PRTXYZ     - PRINT CARTESIAN COORDINATES
 *  LARGE      - EXPANDED OUTPUT TO BE PRINTED
 *******************************************************************************
 AUX LARGE CHARGE=0 SINGLET  PM6  OPT PRECISE PRTXYZ
 CN283.pdb
 35
   ATOM   CHEMICAL          X               Y               Z
  NUMBER   SYMBOL      (ANGSTROMS)     (ANGSTROMS)     (ANGSTROMS)
 
     1       N          0.68800000  *   0.65800000  *  -0.47300000  *
     2       C          0.60600000  *  -0.59900000  *   0.28100000  *
     3       C          1.90200000  *  -1.37100000  *   0.18400000  *
     4       N          3.07100000  *  -0.67200000  *   0.00100000  *
     5       C          3.10400000  *   0.71900000  *  -0.06800000  *
     6       C          1.86400000  *   1.29800000  *  -0.64100000  *
     7       C          4.37900000  *  -1.23200000  *  -0.20300000  *
     8       C          5.24600000  *   0.04400000  *   0.03800000  *
     9       C          4.42700000  *   0.98300000  *  -0.81100000  *
    10       C         -0.59300000  *  -1.46100000  *  -0.16200000  *
    11       C         -1.89700000  *  -0.71700000  *  -0.03500000  *
    12       O          1.90400000  *  -2.60700000  *   0.21800000  *
    13       O          1.91600000  *   2.36000000  *  -1.27100000  *
    14       C         -2.10800000  *   0.24900000  *   0.95000000  *
    15       C         -3.32200000  *   0.91900000  *   1.01800000  *
    16       C         -4.32600000  *   0.62700000  *   0.10300000  *
    17       C         -4.12100000  *  -0.33900000  *  -0.87500000  *
    18       C         -2.90900000  *  -1.01000000  *  -0.94300000  *
    19       O         -5.52700000  *   1.29100000  *   0.15700000  *
    20       H         -0.15600000  *   1.05200000  *  -0.86200000  *
    21       H          0.46000000  *  -0.33100000  *   1.33700000  *
    22       H          3.21200000  *   1.08500000  *   0.96400000  *
    23       H          4.62400000  *  -2.07600000  *   0.45200000  *
    24       H          4.45600000  *  -1.54300000  *  -1.25500000  *
    25       H          5.18400000  *   0.36800000  *   1.08800000  *
    26       H          6.29100000  *  -0.07400000  *  -0.27100000  *
    27       H          4.38400000  *   0.60100000  *  -1.84100000  *
    28       H          4.73200000  *   2.03600000  *  -0.80100000  *
    29       H         -0.47900000  *  -1.79700000  *  -1.20400000  *
    30       H         -0.62800000  *  -2.35000000  *   0.48200000  *
    31       H         -1.34800000  *   0.48100000  *   1.65000000  *
    32       H         -3.48300000  *   1.65900000  *   1.76700000  *
    33       H         -4.89200000  *  -0.56200000  *  -1.57200000  *
    34       H         -2.75100000  *  -1.75200000  *  -1.69600000  *
    35       H         -5.54300000  *   1.94900000  *   0.90900000  *
 


          CARTESIAN COORDINATES 

    NO.       ATOM           X           Y           Z

     1         N          0.6880      0.6580     -0.4730
     2         C          0.6060     -0.5990      0.2810
     3         C          1.9020     -1.3710      0.1840
     4         N          3.0710     -0.6720      0.0010
     5         C          3.1040      0.7190     -0.0680
     6         C          1.8640      1.2980     -0.6410
     7         C          4.3790     -1.2320     -0.2030
     8         C          5.2460      0.0440      0.0380
     9         C          4.4270      0.9830     -0.8110
    10         C         -0.5930     -1.4610     -0.1620
    11         C         -1.8970     -0.7170     -0.0350
    12         O          1.9040     -2.6070      0.2180
    13         O          1.9160      2.3600     -1.2710
    14         C         -2.1080      0.2490      0.9500
    15         C         -3.3220      0.9190      1.0180
    16         C         -4.3260      0.6270      0.1030
    17         C         -4.1210     -0.3390     -0.8750
    18         C         -2.9090     -1.0100     -0.9430
    19         O         -5.5270      1.2910      0.1570
    20         H         -0.1560      1.0520     -0.8620
    21         H          0.4600     -0.3310      1.3370
    22         H          3.2120      1.0850      0.9640
    23         H          4.6240     -2.0760      0.4520
    24         H          4.4560     -1.5430     -1.2550
    25         H          5.1840      0.3680      1.0880
    26         H          6.2910     -0.0740     -0.2710
    27         H          4.3840      0.6010     -1.8410
    28         H          4.7320      2.0360     -0.8010
    29         H         -0.4790     -1.7970     -1.2040
    30         H         -0.6280     -2.3500      0.4820
    31         H         -1.3480      0.4810      1.6500
    32         H         -3.4830      1.6590      1.7670
    33         H         -4.8920     -0.5620     -1.5720
    34         H         -2.7510     -1.7520     -1.6960
    35         H         -5.5430      1.9490      0.9090

 General Reference for PM6:
 "Optimization of Parameters for Semiempirical Methods V: Modification of NDDO Approximations
 and Application to 70 Elements", J. J. P. Stewart, J. Mol. Mod., 13, 1173-1213 (2007)
 URL: https://link.springer.com/article/10.1007/s00894-007-0233-4

           Empirical Formula: C14 H16 N2 O3  =    35 atoms



      MOLECULAR POINT GROUP   :   C1  


 SINGLET STATE CALCULATION


      RHF CALCULATION, NO. OF DOUBLY OCCUPIED LEVELS = 50


          Geometry optimization using L-BFGS
 CYCLE:     1 TIME:   0.039 TIME LEFT:  2.00D  GRAD.:   201.958 HEAT: -78.55124
 CYCLE:     2 TIME:   0.023 TIME LEFT:  2.00D  GRAD.:   197.353 HEAT: -78.95446
 CYCLE:     3 TIME:   0.023 TIME LEFT:  2.00D  GRAD.:    73.881 HEAT: -90.91868
 CYCLE:     4 TIME:   0.023 TIME LEFT:  2.00D  GRAD.:   197.381 HEAT: -78.95466
 CYCLE:     5 TIME:   0.023 TIME LEFT:  2.00D  GRAD.:    73.886 HEAT: -90.91902
 CYCLE:     6 TIME:   0.023 TIME LEFT:  2.00D  GRAD.:    62.317 HEAT: -93.72531
 CYCLE:     7 TIME:   0.031 TIME LEFT:  2.00D  GRAD.:    88.245 HEAT: -96.74004
 CYCLE:     8 TIME:   0.023 TIME LEFT:  2.00D  GRAD.:    79.349 HEAT: -97.39418
 CYCLE:     9 TIME:   0.031 TIME LEFT:  2.00D  GRAD.:    30.824 HEAT: -98.54229
 CYCLE:    10 TIME:   0.023 TIME LEFT:  2.00D  GRAD.:    23.183 HEAT: -99.02054
 CYCLE:    11 TIME:   0.016 TIME LEFT:  2.00D  GRAD.:    32.831 HEAT: -99.99308
 CYCLE:    12 TIME:   0.023 TIME LEFT:  2.00D  GRAD.:    33.975 HEAT: -101.0120
 CYCLE:    13 TIME:   0.023 TIME LEFT:  2.00D  GRAD.:    70.245 HEAT: -101.9137
 CYCLE:    14 TIME:   0.023 TIME LEFT:  2.00D  GRAD.:    37.961 HEAT: -103.0268
 CYCLE:    15 TIME:   0.023 TIME LEFT:  2.00D  GRAD.:    21.503 HEAT: -103.5709
 CYCLE:    16 TIME:   0.016 TIME LEFT:  2.00D  GRAD.:    22.420 HEAT: -104.1034
 CYCLE:    17 TIME:   0.023 TIME LEFT:  2.00D  GRAD.:    27.506 HEAT: -104.6466
 CYCLE:    18 TIME:   0.031 TIME LEFT:  2.00D  GRAD.:    37.491 HEAT: -105.5639
 CYCLE:    19 TIME:   0.016 TIME LEFT:  2.00D  GRAD.:    37.066 HEAT: -106.3587
 CYCLE:    20 TIME:   0.023 TIME LEFT:  2.00D  GRAD.:    22.511 HEAT: -106.9982
 CYCLE:    21 TIME:   0.023 TIME LEFT:  2.00D  GRAD.:    16.849 HEAT: -107.3892
 CYCLE:    22 TIME:   0.031 TIME LEFT:  2.00D  GRAD.:    19.279 HEAT: -107.7295
 CYCLE:    23 TIME:   0.031 TIME LEFT:  2.00D  GRAD.:    51.699 HEAT: -107.8178
 CYCLE:    24 TIME:   0.070 TIME LEFT:  2.00D  GRAD.:    14.780 HEAT: -108.2898
 CYCLE:    25 TIME:   0.125 TIME LEFT:  2.00D  GRAD.:    14.129 HEAT: -108.3772
 CYCLE:    26 TIME:   0.039 TIME LEFT:  2.00D  GRAD.:    12.577 HEAT: -108.5860
 CYCLE:    27 TIME:   0.031 TIME LEFT:  2.00D  GRAD.:    22.976 HEAT: -108.8337
 CYCLE:    28 TIME:   0.031 TIME LEFT:  2.00D  GRAD.:    14.499 HEAT: -109.0344
 CYCLE:    29 TIME:   0.031 TIME LEFT:  2.00D  GRAD.:    10.047 HEAT: -109.1209
 CYCLE:    30 TIME:   0.023 TIME LEFT:  2.00D  GRAD.:    10.381 HEAT: -109.2169
 CYCLE:    31 TIME:   0.031 TIME LEFT:  2.00D  GRAD.:    13.206 HEAT: -109.2504
 CYCLE:    32 TIME:   0.023 TIME LEFT:  2.00D  GRAD.:     7.355 HEAT: -109.2970
 CYCLE:    33 TIME:   0.023 TIME LEFT:  2.00D  GRAD.:     7.204 HEAT: -109.3466
 CYCLE:    34 TIME:   0.023 TIME LEFT:  2.00D  GRAD.:     8.153 HEAT: -109.3915
 CYCLE:    35 TIME:   0.023 TIME LEFT:  2.00D  GRAD.:    18.413 HEAT: -109.4360
 CYCLE:    36 TIME:   0.023 TIME LEFT:  2.00D  GRAD.:     7.385 HEAT: -109.5186
 CYCLE:    37 TIME:   0.023 TIME LEFT:  2.00D  GRAD.:     4.119 HEAT: -109.5469
 CYCLE:    38 TIME:   0.023 TIME LEFT:  2.00D  GRAD.:     4.131 HEAT: -109.5671
 CYCLE:    39 TIME:   0.016 TIME LEFT:  2.00D  GRAD.:     7.296 HEAT: -109.5879
 CYCLE:    40 TIME:   0.031 TIME LEFT:  2.00D  GRAD.:     4.865 HEAT: -109.6124
 CYCLE:    41 TIME:   0.016 TIME LEFT:  2.00D  GRAD.:     3.835 HEAT: -109.6403
 CYCLE:    42 TIME:   0.023 TIME LEFT:  2.00D  GRAD.:     5.301 HEAT: -109.6544
 CYCLE:    43 TIME:   0.023 TIME LEFT:  2.00D  GRAD.:     3.686 HEAT: -109.6702
 CYCLE:    44 TIME:   0.023 TIME LEFT:  2.00D  GRAD.:     3.626 HEAT: -109.6867
 CYCLE:    45 TIME:   0.031 TIME LEFT:  2.00D  GRAD.:     7.618 HEAT: -109.6927
 CYCLE:    46 TIME:   0.016 TIME LEFT:  2.00D  GRAD.:     3.750 HEAT: -109.7050
 CYCLE:    47 TIME:   0.031 TIME LEFT:  2.00D  GRAD.:     3.020 HEAT: -109.7166
 CYCLE:    48 TIME:   0.023 TIME LEFT:  2.00D  GRAD.:     3.885 HEAT: -109.7288
 CYCLE:    49 TIME:   0.023 TIME LEFT:  2.00D  GRAD.:     4.953 HEAT: -109.7475
 CYCLE:    50 TIME:   0.023 TIME LEFT:  2.00D  GRAD.:     5.085 HEAT: -109.7634
 CYCLE:    51 TIME:   0.023 TIME LEFT:  2.00D  GRAD.:     2.626 HEAT: -109.7758
 CYCLE:    52 TIME:   0.023 TIME LEFT:  2.00D  GRAD.:     3.119 HEAT: -109.7848
 CYCLE:    53 TIME:   0.016 TIME LEFT:  2.00D  GRAD.:     3.057 HEAT: -109.7953
 CYCLE:    54 TIME:   0.023 TIME LEFT:  2.00D  GRAD.:     9.555 HEAT: -109.7957
 CYCLE:    55 TIME:   0.023 TIME LEFT:  2.00D  GRAD.:     1.990 HEAT: -109.8139
 CYCLE:    56 TIME:   0.023 TIME LEFT:  2.00D  GRAD.:     1.794 HEAT: -109.8168
 CYCLE:    57 TIME:   0.023 TIME LEFT:  2.00D  GRAD.:     2.443 HEAT: -109.8253
 CYCLE:    58 TIME:   0.023 TIME LEFT:  2.00D  GRAD.:     8.832 HEAT: -109.8217
 CYCLE:    59 TIME:   0.023 TIME LEFT:  2.00D  GRAD.:     1.999 HEAT: -109.8341
 CYCLE:    60 TIME:   0.039 TIME LEFT:  2.00D  GRAD.:     1.483 HEAT: -109.8369
 CYCLE:    61 TIME:   0.055 TIME LEFT:  2.00D  GRAD.:     1.955 HEAT: -109.8446
 CYCLE:    62 TIME:   0.016 TIME LEFT:  2.00D  GRAD.:     2.977 HEAT: -109.8527
 CYCLE:    63 TIME:   0.023 TIME LEFT:  2.00D  GRAD.:     2.678 HEAT: -109.8642
 CYCLE:    64 TIME:   0.023 TIME LEFT:  2.00D  GRAD.:     2.761 HEAT: -109.8715
 CYCLE:    65 TIME:   0.023 TIME LEFT:  2.00D  GRAD.:     2.285 HEAT: -109.8776
 CYCLE:    66 TIME:   0.023 TIME LEFT:  2.00D  GRAD.:     2.900 HEAT: -109.8852
 CYCLE:    67 TIME:   0.023 TIME LEFT:  2.00D  GRAD.:     2.886 HEAT: -109.8937
 CYCLE:    68 TIME:   0.023 TIME LEFT:  2.00D  GRAD.:     2.067 HEAT: -109.9005
 CYCLE:    69 TIME:   0.023 TIME LEFT:  2.00D  GRAD.:     2.153 HEAT: -109.9095
 CYCLE:    70 TIME:   0.023 TIME LEFT:  2.00D  GRAD.:     2.891 HEAT: -109.9183
 CYCLE:    71 TIME:   0.023 TIME LEFT:  2.00D  GRAD.:     2.640 HEAT: -109.9302
 CYCLE:    72 TIME:   0.016 TIME LEFT:  2.00D  GRAD.:     2.993 HEAT: -109.9413
 CYCLE:    73 TIME:   0.031 TIME LEFT:  2.00D  GRAD.:     3.044 HEAT: -109.9510
 CYCLE:    74 TIME:   0.016 TIME LEFT:  2.00D  GRAD.:     2.769 HEAT: -109.9602
 CYCLE:    75 TIME:   0.023 TIME LEFT:  2.00D  GRAD.:     3.823 HEAT: -109.9700
 CYCLE:    76 TIME:   0.023 TIME LEFT:  2.00D  GRAD.:     4.900 HEAT: -109.9788
 CYCLE:    77 TIME:   0.023 TIME LEFT:  2.00D  GRAD.:     2.536 HEAT: -109.9859
 CYCLE:    78 TIME:   0.016 TIME LEFT:  2.00D  GRAD.:     2.233 HEAT: -109.9918
 CYCLE:    79 TIME:   0.023 TIME LEFT:  2.00D  GRAD.:     3.443 HEAT: -110.0008
 CYCLE:    80 TIME:   0.023 TIME LEFT:  2.00D  GRAD.:     3.907 HEAT: -110.0132
 CYCLE:    81 TIME:   0.023 TIME LEFT:  2.00D  GRAD.:     4.173 HEAT: -110.0251
 CYCLE:    82 TIME:   0.023 TIME LEFT:  2.00D  GRAD.:     4.186 HEAT: -110.0317
 CYCLE:    83 TIME:   0.023 TIME LEFT:  2.00D  GRAD.:     2.732 HEAT: -110.0383
 CYCLE:    84 TIME:   0.023 TIME LEFT:  2.00D  GRAD.:     3.027 HEAT: -110.0447
 CYCLE:    85 TIME:   0.016 TIME LEFT:  2.00D  GRAD.:     4.052 HEAT: -110.0512
 CYCLE:    86 TIME:   0.023 TIME LEFT:  2.00D  GRAD.:     4.712 HEAT: -110.0543
 CYCLE:    87 TIME:   0.023 TIME LEFT:  2.00D  GRAD.:     3.243 HEAT: -110.0612
 CYCLE:    88 TIME:   0.023 TIME LEFT:  2.00D  GRAD.:     2.934 HEAT: -110.0680
 CYCLE:    89 TIME:   0.039 TIME LEFT:  2.00D  GRAD.:     3.804 HEAT: -110.0734
 CYCLE:    90 TIME:   0.023 TIME LEFT:  2.00D  GRAD.:     4.666 HEAT: -110.0741
 CYCLE:    91 TIME:   0.031 TIME LEFT:  2.00D  GRAD.:     2.853 HEAT: -110.0819
 CYCLE:    92 TIME:   0.023 TIME LEFT:  2.00D  GRAD.:     3.563 HEAT: -110.0849
 CYCLE:    93 TIME:   0.023 TIME LEFT:  2.00D  GRAD.:     4.452 HEAT: -110.0898
 CYCLE:    94 TIME:   0.023 TIME LEFT:  2.00D  GRAD.:     4.397 HEAT: -110.0979
 CYCLE:    95 TIME:   0.023 TIME LEFT:  2.00D  GRAD.:     3.475 HEAT: -110.1025
 CYCLE:    96 TIME:   0.016 TIME LEFT:  2.00D  GRAD.:     4.290 HEAT: -110.1128
 CYCLE:    97 TIME:   0.031 TIME LEFT:  2.00D  GRAD.:     4.239 HEAT: -110.1304
 CYCLE:    98 TIME:   0.016 TIME LEFT:  2.00D  GRAD.:     9.880 HEAT: -110.1424
 CYCLE:    99 TIME:   0.023 TIME LEFT:  2.00D  GRAD.:     4.661 HEAT: -110.1623
 CYCLE:   100 TIME:   0.016 TIME LEFT:  2.00D  GRAD.:     4.341 HEAT: -110.1818
 CYCLE:   101 TIME:   0.023 TIME LEFT:  2.00D  GRAD.:     6.189 HEAT: -110.1932
 CYCLE:   102 TIME:   0.023 TIME LEFT:  2.00D  GRAD.:     9.476 HEAT: -110.2220
 CYCLE:   103 TIME:   0.016 TIME LEFT:  2.00D  GRAD.:     8.592 HEAT: -110.2510
 CYCLE:   104 TIME:   0.031 TIME LEFT:  2.00D  GRAD.:     6.986 HEAT: -110.2790
 CYCLE:   105 TIME:   0.078 TIME LEFT:  2.00D  GRAD.:     9.795 HEAT: -110.3024
 CYCLE:   106 TIME:   0.023 TIME LEFT:  2.00D  GRAD.:     4.178 HEAT: -110.3275
 CYCLE:   107 TIME:   0.016 TIME LEFT:  2.00D  GRAD.:     3.333 HEAT: -110.3374
 CYCLE:   108 TIME:   0.023 TIME LEFT:  2.00D  GRAD.:     4.273 HEAT: -110.3529
 CYCLE:   109 TIME:   0.062 TIME LEFT:  2.00D  GRAD.:     3.532 HEAT: -110.3676
 CYCLE:   110 TIME:   0.016 TIME LEFT:  2.00D  GRAD.:     3.609 HEAT: -110.3751
 CYCLE:   111 TIME:   0.023 TIME LEFT:  2.00D  GRAD.:     2.448 HEAT: -110.3822
 CYCLE:   112 TIME:   0.023 TIME LEFT:  2.00D  GRAD.:     2.678 HEAT: -110.3921
 CYCLE:   113 TIME:   0.023 TIME LEFT:  2.00D  GRAD.:     4.911 HEAT: -110.4026
 CYCLE:   114 TIME:   0.031 TIME LEFT:  2.00D  GRAD.:     4.627 HEAT: -110.4113
 CYCLE:   115 TIME:   0.023 TIME LEFT:  2.00D  GRAD.:     5.369 HEAT: -110.4126
 CYCLE:   116 TIME:   0.023 TIME LEFT:  2.00D  GRAD.:     6.686 HEAT: -110.4308
 CYCLE:   117 TIME:   0.023 TIME LEFT:  2.00D  GRAD.:     2.495 HEAT: -110.4412
 CYCLE:   118 TIME:   0.023 TIME LEFT:  2.00D  GRAD.:     2.194 HEAT: -110.4461
 CYCLE:   119 TIME:   0.031 TIME LEFT:  2.00D  GRAD.:     3.102 HEAT: -110.4574
 CYCLE:   120 TIME:   0.023 TIME LEFT:  2.00D  GRAD.:     4.003 HEAT: -110.4700
 CYCLE:   121 TIME:   0.023 TIME LEFT:  2.00D  GRAD.:     7.672 HEAT: -110.4766
 CYCLE:   122 TIME:   0.016 TIME LEFT:  2.00D  GRAD.:     2.529 HEAT: -110.4880
 CYCLE:   123 TIME:   0.023 TIME LEFT:  2.00D  GRAD.:     2.911 HEAT: -110.4910
 CYCLE:   124 TIME:   0.023 TIME LEFT:  2.00D  GRAD.:     4.658 HEAT: -110.4954
 CYCLE:   125 TIME:   0.023 TIME LEFT:  2.00D  GRAD.:     2.219 HEAT: -110.5039
 CYCLE:   126 TIME:   0.031 TIME LEFT:  2.00D  GRAD.:     2.315 HEAT: -110.5122
 CYCLE:   127 TIME:   0.016 TIME LEFT:  2.00D  GRAD.:     3.202 HEAT: -110.5206
 CYCLE:   128 TIME:   0.031 TIME LEFT:  2.00D  GRAD.:     5.232 HEAT: -110.5324
 CYCLE:   129 TIME:   0.023 TIME LEFT:  2.00D  GRAD.:     3.045 HEAT: -110.5420
 CYCLE:   130 TIME:   0.031 TIME LEFT:  2.00D  GRAD.:     2.631 HEAT: -110.5466
 CYCLE:   131 TIME:   0.023 TIME LEFT:  2.00D  GRAD.:     3.118 HEAT: -110.5529
 CYCLE:   132 TIME:   0.016 TIME LEFT:  2.00D  GRAD.:     5.059 HEAT: -110.5585
 CYCLE:   133 TIME:   0.023 TIME LEFT:  2.00D  GRAD.:     3.069 HEAT: -110.5663
 CYCLE:   134 TIME:   0.023 TIME LEFT:  2.00D  GRAD.:     2.297 HEAT: -110.5752
 CYCLE:   135 TIME:   0.023 TIME LEFT:  2.00D  GRAD.:     3.126 HEAT: -110.5803
 CYCLE:   136 TIME:   0.023 TIME LEFT:  2.00D  GRAD.:     2.655 HEAT: -110.5866
 CYCLE:   137 TIME:   0.023 TIME LEFT:  2.00D  GRAD.:     3.641 HEAT: -110.5913
 CYCLE:   138 TIME:   0.023 TIME LEFT:  2.00D  GRAD.:     2.589 HEAT: -110.5945
 CYCLE:   139 TIME:   0.016 TIME LEFT:  2.00D  GRAD.:     1.539 HEAT: -110.5968
 CYCLE:   140 TIME:   0.031 TIME LEFT:  2.00D  GRAD.:     1.608 HEAT: -110.5985
 CYCLE:   141 TIME:   0.023 TIME LEFT:  2.00D  GRAD.:     2.481 HEAT: -110.6021
 CYCLE:   142 TIME:   0.023 TIME LEFT:  2.00D  GRAD.:     3.956 HEAT: -110.6059
 CYCLE:   143 TIME:   0.023 TIME LEFT:  2.00D  GRAD.:     2.629 HEAT: -110.6117
 CYCLE:   144 TIME:   0.023 TIME LEFT:  2.00D  GRAD.:     2.034 HEAT: -110.6173
 CYCLE:   145 TIME:   0.023 TIME LEFT:  2.00D  GRAD.:     2.394 HEAT: -110.6238
 CYCLE:   146 TIME:   0.062 TIME LEFT:  2.00D  GRAD.:     3.648 HEAT: -110.6297
 CYCLE:   147 TIME:   0.023 TIME LEFT:  2.00D  GRAD.:     2.317 HEAT: -110.6353
 CYCLE:   148 TIME:   0.023 TIME LEFT:  2.00D  GRAD.:     1.975 HEAT: -110.6402
 CYCLE:   149 TIME:   0.023 TIME LEFT:  2.00D  GRAD.:     2.269 HEAT: -110.6444
 CYCLE:   150 TIME:   0.023 TIME LEFT:  2.00D  GRAD.:     3.560 HEAT: -110.6491
 CYCLE:   151 TIME:   0.016 TIME LEFT:  2.00D  GRAD.:     2.167 HEAT: -110.6542
 CYCLE:   152 TIME:   0.031 TIME LEFT:  2.00D  GRAD.:     2.106 HEAT: -110.6585
 CYCLE:   153 TIME:   0.016 TIME LEFT:  2.00D  GRAD.:     4.348 HEAT: -110.6619
 CYCLE:   154 TIME:   0.023 TIME LEFT:  2.00D  GRAD.:     2.625 HEAT: -110.6670
 CYCLE:   155 TIME:   0.023 TIME LEFT:  2.00D  GRAD.:     2.549 HEAT: -110.6741
 CYCLE:   156 TIME:   0.023 TIME LEFT:  2.00D  GRAD.:     3.050 HEAT: -110.6820
 CYCLE:   157 TIME:   0.016 TIME LEFT:  2.00D  GRAD.:     6.513 HEAT: -110.6884
 CYCLE:   158 TIME:   0.031 TIME LEFT:  2.00D  GRAD.:     2.554 HEAT: -110.6977
 CYCLE:   159 TIME:   0.016 TIME LEFT:  2.00D  GRAD.:     2.151 HEAT: -110.7029
 CYCLE:   160 TIME:   0.023 TIME LEFT:  2.00D  GRAD.:     2.930 HEAT: -110.7107
 CYCLE:   161 TIME:   0.023 TIME LEFT:  2.00D  GRAD.:     4.857 HEAT: -110.7195
 CYCLE:   162 TIME:   0.023 TIME LEFT:  2.00D  GRAD.:     3.366 HEAT: -110.7297
 CYCLE:   163 TIME:   0.023 TIME LEFT:  2.00D  GRAD.:     2.257 HEAT: -110.7371
 CYCLE:   164 TIME:   0.023 TIME LEFT:  2.00D  GRAD.:     2.991 HEAT: -110.7431
 CYCLE:   165 TIME:   0.023 TIME LEFT:  2.00D  GRAD.:     2.835 HEAT: -110.7485
 CYCLE:   166 TIME:   0.016 TIME LEFT:  2.00D  GRAD.:     2.754 HEAT: -110.7579
 CYCLE:   167 TIME:   0.031 TIME LEFT:  2.00D  GRAD.:     7.286 HEAT: -110.7591
 CYCLE:   168 TIME:   0.016 TIME LEFT:  2.00D  GRAD.:     2.205 HEAT: -110.7696
 CYCLE:   169 TIME:   0.031 TIME LEFT:  2.00D  GRAD.:     1.885 HEAT: -110.7727
 CYCLE:   170 TIME:   0.016 TIME LEFT:  2.00D  GRAD.:     2.648 HEAT: -110.7809
 CYCLE:   171 TIME:   0.023 TIME LEFT:  2.00D  GRAD.:     3.329 HEAT: -110.7906
 CYCLE:   172 TIME:   0.023 TIME LEFT:  2.00D  GRAD.:     5.946 HEAT: -110.7979
 CYCLE:   173 TIME:   0.023 TIME LEFT:  2.00D  GRAD.:     3.071 HEAT: -110.8078
 CYCLE:   174 TIME:   0.023 TIME LEFT:  2.00D  GRAD.:     2.177 HEAT: -110.8134
 CYCLE:   175 TIME:   0.023 TIME LEFT:  2.00D  GRAD.:     2.752 HEAT: -110.8204
 CYCLE:   176 TIME:   0.023 TIME LEFT:  2.00D  GRAD.:     5.953 HEAT: -110.8230
 CYCLE:   177 TIME:   0.016 TIME LEFT:  2.00D  GRAD.:     2.883 HEAT: -110.8308
 CYCLE:   178 TIME:   0.031 TIME LEFT:  2.00D  GRAD.:     2.162 HEAT: -110.8365
 CYCLE:   179 TIME:   0.023 TIME LEFT:  2.00D  GRAD.:     2.846 HEAT: -110.8409
 CYCLE:   180 TIME:   0.016 TIME LEFT:  2.00D  GRAD.:     4.800 HEAT: -110.8518
 CYCLE:   181 TIME:   0.023 TIME LEFT:  2.00D  GRAD.:     3.770 HEAT: -110.8652
 CYCLE:   182 TIME:   0.023 TIME LEFT:  2.00D  GRAD.:     4.112 HEAT: -110.8802
 CYCLE:   183 TIME:   0.016 TIME LEFT:  2.00D  GRAD.:     4.568 HEAT: -110.8985
 CYCLE:   184 TIME:   0.023 TIME LEFT:  2.00D  GRAD.:     4.129 HEAT: -110.9141
 CYCLE:   185 TIME:   0.023 TIME LEFT:  2.00D  GRAD.:     4.096 HEAT: -110.9393
 CYCLE:   186 TIME:   0.031 TIME LEFT:  2.00D  GRAD.:     7.941 HEAT: -110.9654
 CYCLE:   187 TIME:   0.023 TIME LEFT:  2.00D  GRAD.:     5.369 HEAT: -110.9865
 CYCLE:   188 TIME:   0.023 TIME LEFT:  2.00D  GRAD.:     3.617 HEAT: -110.9988
 CYCLE:   189 TIME:   0.023 TIME LEFT:  2.00D  GRAD.:     5.809 HEAT: -110.9995
 CYCLE:   190 TIME:   0.062 TIME LEFT:  2.00D  GRAD.:     3.148 HEAT: -111.0225
 CYCLE:   191 TIME:   0.031 TIME LEFT:  2.00D  GRAD.:     3.792 HEAT: -111.0332
 CYCLE:   192 TIME:   0.016 TIME LEFT:  2.00D  GRAD.:     2.199 HEAT: -111.0435
 CYCLE:   193 TIME:   0.023 TIME LEFT:  2.00D  GRAD.:     2.598 HEAT: -111.0545
 CYCLE:   194 TIME:   0.023 TIME LEFT:  2.00D  GRAD.:     6.180 HEAT: -111.0560
 CYCLE:   195 TIME:   0.023 TIME LEFT:  2.00D  GRAD.:     2.219 HEAT: -111.0619
 CYCLE:   196 TIME:   0.023 TIME LEFT:  2.00D  GRAD.:     1.400 HEAT: -111.0645
 CYCLE:   197 TIME:   0.023 TIME LEFT:  2.00D  GRAD.:     1.838 HEAT: -111.0667
 CYCLE:   198 TIME:   0.016 TIME LEFT:  2.00D  GRAD.:     2.034 HEAT: -111.0709
 CYCLE:   199 TIME:   0.023 TIME LEFT:  2.00D  GRAD.:     7.103 HEAT: -111.0659
 CYCLE:   200 TIME:   0.031 TIME LEFT:  2.00D  GRAD.:     1.493 HEAT: -111.0779
 CYCLE:   201 TIME:   0.023 TIME LEFT:  2.00D  GRAD.:     1.126 HEAT: -111.0794
 CYCLE:   202 TIME:   0.023 TIME LEFT:  2.00D  GRAD.:     1.733 HEAT: -111.0818
 CYCLE:   203 TIME:   0.016 TIME LEFT:  2.00D  GRAD.:     2.859 HEAT: -111.0834
 CYCLE:   204 TIME:   0.031 TIME LEFT:  2.00D  GRAD.:     1.652 HEAT: -111.0852
 CYCLE:   205 TIME:   0.023 TIME LEFT:  2.00D  GRAD.:     1.488 HEAT: -111.0873
 CYCLE:   206 TIME:   0.016 TIME LEFT:  2.00D  GRAD.:     1.665 HEAT: -111.0885
 CYCLE:   207 TIME:   0.023 TIME LEFT:  2.00D  GRAD.:     3.831 HEAT: -111.0888
 CYCLE:   208 TIME:   0.031 TIME LEFT:  2.00D  GRAD.:     1.183 HEAT: -111.0915
 CYCLE:   209 TIME:   0.023 TIME LEFT:  2.00D  GRAD.:     0.926 HEAT: -111.0922
 CYCLE:   210 TIME:   0.023 TIME LEFT:  2.00D  GRAD.:     1.160 HEAT: -111.0932
 CYCLE:   211 TIME:   0.023 TIME LEFT:  2.00D  GRAD.:     2.359 HEAT: -111.0936
 CYCLE:   212 TIME:   0.016 TIME LEFT:  2.00D  GRAD.:     1.172 HEAT: -111.0947
 CYCLE:   213 TIME:   0.023 TIME LEFT:  2.00D  GRAD.:     0.880 HEAT: -111.0954
 CYCLE:   214 TIME:   0.031 TIME LEFT:  2.00D  GRAD.:     1.160 HEAT: -111.0962
 CYCLE:   215 TIME:   0.016 TIME LEFT:  2.00D  GRAD.:     1.453 HEAT: -111.0979
 CYCLE:   216 TIME:   0.031 TIME LEFT:  2.00D  GRAD.:     3.140 HEAT: -111.0994
 CYCLE:   217 TIME:   0.023 TIME LEFT:  2.00D  GRAD.:     1.373 HEAT: -111.1022
 CYCLE:   218 TIME:   0.023 TIME LEFT:  2.00D  GRAD.:     1.095 HEAT: -111.1038
 CYCLE:   219 TIME:   0.023 TIME LEFT:  2.00D  GRAD.:     1.507 HEAT: -111.1060
 CYCLE:   220 TIME:   0.016 TIME LEFT:  2.00D  GRAD.:     3.709 HEAT: -111.1078
 CYCLE:   221 TIME:   0.023 TIME LEFT:  2.00D  GRAD.:     2.185 HEAT: -111.1103
 CYCLE:   222 TIME:   0.023 TIME LEFT:  2.00D  GRAD.:     1.323 HEAT: -111.1139
 CYCLE:   223 TIME:   0.023 TIME LEFT:  2.00D  GRAD.:     1.721 HEAT: -111.1161
 CYCLE:   224 TIME:   0.023 TIME LEFT:  2.00D  GRAD.:     1.785 HEAT: -111.1205
 CYCLE:   225 TIME:   0.023 TIME LEFT:  2.00D  GRAD.:     2.254 HEAT: -111.1241
 CYCLE:   226 TIME:   0.023 TIME LEFT:  2.00D  GRAD.:     1.600 HEAT: -111.1289
 CYCLE:   227 TIME:   0.023 TIME LEFT:  2.00D  GRAD.:     0.821 HEAT: -111.1297
 CYCLE:   228 TIME:   0.023 TIME LEFT:  2.00D  GRAD.:     0.807 HEAT: -111.1304
 CYCLE:   229 TIME:   0.023 TIME LEFT:  2.00D  GRAD.:     1.133 HEAT: -111.1319
 CYCLE:   230 TIME:   0.016 TIME LEFT:  2.00D  GRAD.:     3.092 HEAT: -111.1331
 CYCLE:   231 TIME:   0.023 TIME LEFT:  2.00D  GRAD.:     0.887 HEAT: -111.1350
 CYCLE:   232 TIME:   0.016 TIME LEFT:  2.00D  GRAD.:     0.583 HEAT: -111.1356
 CYCLE:   233 TIME:   0.023 TIME LEFT:  2.00D  GRAD.:     0.721 HEAT: -111.1370
 CYCLE:   234 TIME:   0.023 TIME LEFT:  2.00D  GRAD.:     0.834 HEAT: -111.1384
 CYCLE:   235 TIME:   0.070 TIME LEFT:  2.00D  GRAD.:     3.254 HEAT: -111.1408
 CYCLE:   236 TIME:   0.023 TIME LEFT:  2.00D  GRAD.:     0.574 HEAT: -111.1420
 CYCLE:   237 TIME:   0.023 TIME LEFT:  2.00D  GRAD.:     0.454 HEAT: -111.1419
 CYCLE:   238 TIME:   0.023 TIME LEFT:  2.00D  GRAD.:     0.544 HEAT: -111.1421
 CYCLE:   239 TIME:   0.016 TIME LEFT:  2.00D  GRAD.:     1.544 HEAT: -111.1431
 CYCLE:   240 TIME:   0.031 TIME LEFT:  2.00D  GRAD.:     0.601 HEAT: -111.1438
 CYCLE:   241 TIME:   0.016 TIME LEFT:  2.00D  GRAD.:     0.480 HEAT: -111.1443
 CYCLE:   242 TIME:   0.023 TIME LEFT:  2.00D  GRAD.:     0.659 HEAT: -111.1450
 CYCLE:   243 TIME:   0.031 TIME LEFT:  2.00D  GRAD.:     0.747 HEAT: -111.1456
 CYCLE:   244 TIME:   0.016 TIME LEFT:  2.00D  GRAD.:     1.173 HEAT: -111.1468
 CYCLE:   245 TIME:   0.031 TIME LEFT:  2.00D  GRAD.:     0.861 HEAT: -111.1481
 CYCLE:   246 TIME:   0.016 TIME LEFT:  2.00D  GRAD.:     0.956 HEAT: -111.1491
 CYCLE:   247 TIME:   0.023 TIME LEFT:  2.00D  GRAD.:     1.922 HEAT: -111.1497
 CYCLE:   248 TIME:   0.016 TIME LEFT:  2.00D  GRAD.:     1.042 HEAT: -111.1506
 CYCLE:   249 TIME:   0.023 TIME LEFT:  2.00D  GRAD.:     0.734 HEAT: -111.1512
 CYCLE:   250 TIME:   0.023 TIME LEFT:  2.00D  GRAD.:     0.699 HEAT: -111.1526
 CYCLE:   251 TIME:   0.016 TIME LEFT:  2.00D  GRAD.:     1.723 HEAT: -111.1536
 CYCLE:   252 TIME:   0.023 TIME LEFT:  2.00D  GRAD.:     0.999 HEAT: -111.1544
 CYCLE:   253 TIME:   0.023 TIME LEFT:  2.00D  GRAD.:     0.644 HEAT: -111.1545
 CYCLE:   254 TIME:   0.016 TIME LEFT:  2.00D  GRAD.:     0.630 HEAT: -111.1543
 CYCLE:   255 TIME:   0.023 TIME LEFT:  2.00D  GRAD.:     0.787 HEAT: -111.1543
 CYCLE:   256 TIME:   0.023 TIME LEFT:  2.00D  GRAD.:     1.310 HEAT: -111.1534
 CYCLE:   257 TIME:   0.023 TIME LEFT:  2.00D  GRAD.:     0.552 HEAT: -111.1545
 CYCLE:   258 TIME:   0.023 TIME LEFT:  2.00D  GRAD.:     0.519 HEAT: -111.1551
 CYCLE:   259 TIME:   0.016 TIME LEFT:  2.00D  GRAD.:     0.683 HEAT: -111.1560
 CYCLE:   260 TIME:   0.031 TIME LEFT:  2.00D  GRAD.:     1.561 HEAT: -111.1563
 CYCLE:   261 TIME:   0.023 TIME LEFT:  2.00D  GRAD.:     0.796 HEAT: -111.1567
 CYCLE:   262 TIME:   0.031 TIME LEFT:  2.00D  GRAD.:     0.620 HEAT: -111.1567
 CYCLE:   263 TIME:   0.023 TIME LEFT:  2.00D  GRAD.:     0.741 HEAT: -111.1567
 CYCLE:   264 TIME:   0.023 TIME LEFT:  2.00D  GRAD.:     1.899 HEAT: -111.1568
 CYCLE:   265 TIME:   0.023 TIME LEFT:  2.00D  GRAD.:     0.761 HEAT: -111.1577
 CYCLE:   266 TIME:   0.023 TIME LEFT:  2.00D  GRAD.:     0.732 HEAT: -111.1585
 CYCLE:   267 TIME:   0.023 TIME LEFT:  2.00D  GRAD.:     0.875 HEAT: -111.1599
 CYCLE:   268 TIME:   0.023 TIME LEFT:  2.00D  GRAD.:     1.429 HEAT: -111.1621
 CYCLE:   269 TIME:   0.023 TIME LEFT:  2.00D  GRAD.:     1.180 HEAT: -111.1647
 CYCLE:   270 TIME:   0.023 TIME LEFT:  2.00D  GRAD.:     0.937 HEAT: -111.1665
 CYCLE:   271 TIME:   0.023 TIME LEFT:  2.00D  GRAD.:     1.149 HEAT: -111.1680
 CYCLE:   272 TIME:   0.023 TIME LEFT:  2.00D  GRAD.:     1.827 HEAT: -111.1690
 CYCLE:   273 TIME:   0.023 TIME LEFT:  2.00D  GRAD.:     1.086 HEAT: -111.1701
 CYCLE:   274 TIME:   0.016 TIME LEFT:  2.00D  GRAD.:     0.874 HEAT: -111.1711
 CYCLE:   275 TIME:   0.023 TIME LEFT:  2.00D  GRAD.:     1.093 HEAT: -111.1721
 CYCLE:   276 TIME:   0.023 TIME LEFT:  2.00D  GRAD.:     1.950 HEAT: -111.1735
 CYCLE:   277 TIME:   0.023 TIME LEFT:  2.00D  GRAD.:     0.962 HEAT: -111.1747
 CYCLE:   278 TIME:   0.016 TIME LEFT:  2.00D  GRAD.:     0.753 HEAT: -111.1755
 CYCLE:   279 TIME:   0.031 TIME LEFT:  2.00D  GRAD.:     0.877 HEAT: -111.1762
 CYCLE:   280 TIME:   0.078 TIME LEFT:  2.00D  GRAD.:     2.920 HEAT: -111.1757
 CYCLE:   281 TIME:   0.016 TIME LEFT:  2.00D  GRAD.:     0.859 HEAT: -111.1771
 CYCLE:   282 TIME:   0.023 TIME LEFT:  2.00D  GRAD.:     0.506 HEAT: -111.1774
 CYCLE:   283 TIME:   0.023 TIME LEFT:  2.00D  GRAD.:     0.665 HEAT: -111.1774
 CYCLE:   284 TIME:   0.023 TIME LEFT:  2.00D  GRAD.:     0.727 HEAT: -111.1775
 CYCLE:   285 TIME:   0.016 TIME LEFT:  2.00D  GRAD.:     2.925 HEAT: -111.1760
 CYCLE:   286 TIME:   0.023 TIME LEFT:  2.00D  GRAD.:     0.598 HEAT: -111.1775
 CYCLE:   287 TIME:   0.023 TIME LEFT:  2.00D  GRAD.:     0.488 HEAT: -111.1777
 CYCLE:   288 TIME:   0.023 TIME LEFT:  2.00D  GRAD.:     0.588 HEAT: -111.1778
 CYCLE:   289 TIME:   0.023 TIME LEFT:  2.00D  GRAD.:     1.085 HEAT: -111.1775
 CYCLE:   290 TIME:   0.023 TIME LEFT:  2.00D  GRAD.:     0.675 HEAT: -111.1771
 CYCLE:   291 TIME:   0.023 TIME LEFT:  2.00D  GRAD.:     0.499 HEAT: -111.1773
 CYCLE:   292 TIME:   0.023 TIME LEFT:  2.00D  GRAD.:     0.645 HEAT: -111.1775
 CYCLE:   293 TIME:   0.023 TIME LEFT:  2.00D  GRAD.:     0.798 HEAT: -111.1778
 CYCLE:   294 TIME:   0.023 TIME LEFT:  2.00D  GRAD.:     0.893 HEAT: -111.1784
 CYCLE:   295 TIME:   0.023 TIME LEFT:  2.00D  GRAD.:     1.262 HEAT: -111.1788
 CYCLE:   296 TIME:   0.023 TIME LEFT:  2.00D  GRAD.:     0.620 HEAT: -111.1793
 CYCLE:   297 TIME:   0.023 TIME LEFT:  2.00D  GRAD.:     0.550 HEAT: -111.1797
 CYCLE:   298 TIME:   0.023 TIME LEFT:  2.00D  GRAD.:     0.747 HEAT: -111.1801
 CYCLE:   299 TIME:   0.023 TIME LEFT:  2.00D  GRAD.:     1.395 HEAT: -111.1803
 CYCLE:   300 TIME:   0.023 TIME LEFT:  2.00D  GRAD.:     0.930 HEAT: -111.1806
 CYCLE:   301 TIME:   0.023 TIME LEFT:  2.00D  GRAD.:     0.629 HEAT: -111.1807
 CYCLE:   302 TIME:   0.023 TIME LEFT:  2.00D  GRAD.:     0.758 HEAT: -111.1804
 CYCLE:   303 TIME:   0.016 TIME LEFT:  2.00D  GRAD.:     1.133 HEAT: -111.1801
 CYCLE:   304 TIME:   0.023 TIME LEFT:  2.00D  GRAD.:     0.845 HEAT: -111.1797
 CYCLE:   305 TIME:   0.031 TIME LEFT:  2.00D  GRAD.:     0.925 HEAT: -111.1795
 CYCLE:   306 TIME:   0.023 TIME LEFT:  2.00D  GRAD.:     0.714 HEAT: -111.1797
 CYCLE:   307 TIME:   0.031 TIME LEFT:  2.00D  GRAD.:     0.660 HEAT: -111.1802
 CYCLE:   308 TIME:   0.023 TIME LEFT:  2.00D  GRAD.:     0.817 HEAT: -111.1808
 CYCLE:   309 TIME:   0.023 TIME LEFT:  2.00D  GRAD.:     1.244 HEAT: -111.1807
 CYCLE:   310 TIME:   0.023 TIME LEFT:  2.00D  GRAD.:     0.610 HEAT: -111.1810
 CYCLE:   311 TIME:   0.023 TIME LEFT:  2.00D  GRAD.:     0.441 HEAT: -111.1812
 CYCLE:   312 TIME:   0.023 TIME LEFT:  2.00D  GRAD.:     0.572 HEAT: -111.1812
 CYCLE:   313 TIME:   0.016 TIME LEFT:  2.00D  GRAD.:     0.751 HEAT: -111.1816
 CYCLE:   314 TIME:   0.023 TIME LEFT:  2.00D  GRAD.:     1.934 HEAT: -111.1816
 CYCLE:   315 TIME:   0.023 TIME LEFT:  2.00D  GRAD.:     0.479 HEAT: -111.1825
 CYCLE:   316 TIME:   0.023 TIME LEFT:  2.00D  GRAD.:     0.357 HEAT: -111.1828
 CYCLE:   317 TIME:   0.023 TIME LEFT:  2.00D  GRAD.:     0.538 HEAT: -111.1835
 CYCLE:   318 TIME:   0.023 TIME LEFT:  2.00D  GRAD.:     0.961 HEAT: -111.1843
 CYCLE:   319 TIME:   0.023 TIME LEFT:  2.00D  GRAD.:     0.521 HEAT: -111.1847
 CYCLE:   320 TIME:   0.023 TIME LEFT:  2.00D  GRAD.:     0.319 HEAT: -111.1850
 CYCLE:   321 TIME:   0.023 TIME LEFT:  2.00D  GRAD.:     0.387 HEAT: -111.1852
 CYCLE:   322 TIME:   0.023 TIME LEFT:  2.00D  GRAD.:     0.364 HEAT: -111.1854
 CYCLE:   323 TIME:   0.031 TIME LEFT:  2.00D  GRAD.:     0.535 HEAT: -111.1856
 CYCLE:   324 TIME:   0.070 TIME LEFT:  2.00D  GRAD.:     0.367 HEAT: -111.1858
 CYCLE:   325 TIME:   0.023 TIME LEFT:  2.00D  GRAD.:     0.367 HEAT: -111.1860
 CYCLE:   326 TIME:   0.023 TIME LEFT:  2.00D  GRAD.:     0.358 HEAT: -111.1862
 CYCLE:   327 TIME:   0.023 TIME LEFT:  2.00D  GRAD.:     0.674 HEAT: -111.1868
 CYCLE:   328 TIME:   0.031 TIME LEFT:  2.00D  GRAD.:     0.340 HEAT: -111.1872
 CYCLE:   329 TIME:   0.016 TIME LEFT:  2.00D  GRAD.:     0.339 HEAT: -111.1876
 CYCLE:   330 TIME:   0.023 TIME LEFT:  2.00D  GRAD.:     0.523 HEAT: -111.1880
 CYCLE:   331 TIME:   0.023 TIME LEFT:  2.00D  GRAD.:     0.474 HEAT: -111.1884
 CYCLE:   332 TIME:   0.023 TIME LEFT:  2.00D  GRAD.:     0.337 HEAT: -111.1885
 CYCLE:   333 TIME:   0.023 TIME LEFT:  2.00D  GRAD.:     0.453 HEAT: -111.1885
 CYCLE:   334 TIME:   0.023 TIME LEFT:  2.00D  GRAD.:     0.789 HEAT: -111.1884
 CYCLE:   335 TIME:   0.023 TIME LEFT:  2.00D  GRAD.:     0.476 HEAT: -111.1885
 CYCLE:   336 TIME:   0.016 TIME LEFT:  2.00D  GRAD.:     0.396 HEAT: -111.1886
 CYCLE:   337 TIME:   0.023 TIME LEFT:  2.00D  GRAD.:     0.454 HEAT: -111.1888
 CYCLE:   338 TIME:   0.023 TIME LEFT:  2.00D  GRAD.:     0.930 HEAT: -111.1889
 CYCLE:   339 TIME:   0.023 TIME LEFT:  2.00D  GRAD.:     0.526 HEAT: -111.1893
 CYCLE:   340 TIME:   0.023 TIME LEFT:  2.00D  GRAD.:     0.518 HEAT: -111.1895
 CYCLE:   341 TIME:   0.031 TIME LEFT:  2.00D  GRAD.:     0.408 HEAT: -111.1897
 CYCLE:   342 TIME:   0.016 TIME LEFT:  2.00D  GRAD.:     0.525 HEAT: -111.1899
 CYCLE:   343 TIME:   0.031 TIME LEFT:  2.00D  GRAD.:     0.697 HEAT: -111.1896
 CYCLE:   344 TIME:   0.023 TIME LEFT:  2.00D  GRAD.:     0.344 HEAT: -111.1895
 CYCLE:   345 TIME:   0.023 TIME LEFT:  2.00D  GRAD.:     0.253 HEAT: -111.1892
 CYCLE:   346 TIME:   0.023 TIME LEFT:  2.00D  GRAD.:     0.280 HEAT: -111.1889
 CYCLE:   347 TIME:   0.023 TIME LEFT:  2.00D  GRAD.:     0.281 HEAT: -111.1886
 CYCLE:   348 TIME:   0.023 TIME LEFT:  2.00D  GRAD.:     0.609 HEAT: -111.1882
 CYCLE:   349 TIME:   0.023 TIME LEFT:  2.00D  GRAD.:     0.276 HEAT: -111.1883
 CYCLE:   350 TIME:   0.016 TIME LEFT:  2.00D  GRAD.:     0.244 HEAT: -111.1884
 CYCLE:   351 TIME:   0.023 TIME LEFT:  2.00D  GRAD.:     0.270 HEAT: -111.1885
 CYCLE:   352 TIME:   0.031 TIME LEFT:  2.00D  GRAD.:     0.584 HEAT: -111.1887
 CYCLE:   353 TIME:   0.023 TIME LEFT:  2.00D  GRAD.:     0.250 HEAT: -111.1888
 CYCLE:   354 TIME:   0.016 TIME LEFT:  2.00D  GRAD.:     0.210 HEAT: -111.1889
 CYCLE:   355 TIME:   0.023 TIME LEFT:  2.00D  GRAD.:     0.305 HEAT: -111.1889
 CYCLE:   356 TIME:   0.023 TIME LEFT:  2.00D  GRAD.:     0.546 HEAT: -111.1890
 CYCLE:   357 TIME:   0.023 TIME LEFT:  2.00D  GRAD.:     0.234 HEAT: -111.1891
 CYCLE:   358 TIME:   0.016 TIME LEFT:  2.00D  GRAD.:     0.208 HEAT: -111.1892
 CYCLE:   359 TIME:   0.023 TIME LEFT:  2.00D  GRAD.:     0.255 HEAT: -111.1893
 CYCLE:   360 TIME:   0.023 TIME LEFT:  2.00D  GRAD.:     0.332 HEAT: -111.1897
 CYCLE:   361 TIME:   0.023 TIME LEFT:  2.00D  GRAD.:     0.831 HEAT: -111.1903
 CYCLE:   362 TIME:   0.023 TIME LEFT:  2.00D  GRAD.:     0.235 HEAT: -111.1905
 CYCLE:   363 TIME:   0.023 TIME LEFT:  2.00D  GRAD.:     0.208 HEAT: -111.1906
 CYCLE:   364 TIME:   0.016 TIME LEFT:  2.00D  GRAD.:     0.387 HEAT: -111.1911
 CYCLE:   365 TIME:   0.023 TIME LEFT:  2.00D  GRAD.:     0.473 HEAT: -111.1917
 CYCLE:   366 TIME:   0.023 TIME LEFT:  2.00D  GRAD.:     0.297 HEAT: -111.1919
 CYCLE:   367 TIME:   0.023 TIME LEFT:  2.00D  GRAD.:     0.233 HEAT: -111.1924
 CYCLE:   368 TIME:   0.070 TIME LEFT:  2.00D  GRAD.:     0.255 HEAT: -111.1926
 CYCLE:   369 TIME:   0.023 TIME LEFT:  2.00D  GRAD.:     0.494 HEAT: -111.1929
 CYCLE:   370 TIME:   0.023 TIME LEFT:  2.00D  GRAD.:     0.197 HEAT: -111.1930

 -------------------------------------------------------------------------------
 AUX LARGE CHARGE=0 SINGLET  PM6  OPT PRECISE PRTXYZ
 CN283.pdb
 35


     HERBERTS TEST WAS SATISFIED IN BFGS                      
     SCF FIELD WAS ACHIEVED                                   


                              PM6 CALCULATION
                                                       MOPAC2016 (Version: 20.225L)
                                                       Fri Aug 14 20:41:52 2020
                                                       No. of days remaining = 364




          FINAL HEAT OF FORMATION =       -111.19298 KCAL/MOL =    -465.23143 KJ/MOL


          TOTAL ENERGY            =      -3166.29745 EV
          ELECTRONIC ENERGY       =     -21356.77059 EV  POINT GROUP:     C1  
          CORE-CORE REPULSION     =      18190.47314 EV
          COSMO AREA              =        277.65 SQUARE ANGSTROMS
          COSMO VOLUME            =        304.06 CUBIC ANGSTROMS

          GRADIENT NORM           =          0.19679 = 0.03326 PER ATOM
          IONIZATION POTENTIAL    =          9.167871 EV
          HOMO LUMO ENERGIES (EV) =         -9.168 -0.168
          NO. OF FILLED LEVELS    =         50
          MOLECULAR WEIGHT        =        260.2920

          MOLECULAR DIMENSIONS (Angstroms)

            Atom       Atom       Distance
            H    35    H    25    12.40714
            O    13    H    30     5.12943
            H    22    H    34     4.39349


          SCF CALCULATIONS        =        371
 
          WALL-CLOCK TIME         =          9.211 SECONDS
          COMPUTATION TIME        =         16.578 SECONDS




   ATOM   CHEMICAL          X               Y               Z
  NUMBER   SYMBOL      (ANGSTROMS)     (ANGSTROMS)     (ANGSTROMS)
 
     1       N          0.78251678  *   0.60342175  *  -0.79690715  *
     2       C          0.58501664  *  -0.36739816  *   0.30221857  *
     3       C          1.88285013  *  -1.16946295  *   0.54725821  *
     4       N          3.06971961  *  -0.42918642  *   0.52879229  *
     5       C          3.15319861  *   0.92415158  *  -0.09068654  *
     6       C          1.99849700  *   1.22446801  *  -1.05837595  *
     7       C          4.38628711  *  -1.13216135  *   0.42675429  *
     8       C          5.16989199  *  -0.39369522  *  -0.67001953  *
     9       C          4.52306957  *   0.99554100  *  -0.80156130  *
    10       C         -0.56222132  *  -1.33970162  *  -0.03179246  *
    11       C         -1.90331664  *  -0.66876542  *   0.02126746  *
    12       O          1.88055732  *  -2.34855252  *   0.85263880  *
    13       O          2.09608542  *   1.99973854  *  -1.99369235  *
    14       C         -2.49636408  *  -0.37784374  *   1.25864911  *
    15       C         -3.74194642  *   0.24981567  *   1.32340602  *
    16       C         -4.38445750  *   0.57678389  *   0.12135278  *
    17       C         -3.81694109  *   0.29142036  *  -1.13280468  *
    18       C         -2.57453477  *  -0.33349478  *  -1.16907801  *
    19       O         -5.61075490  *   1.19558154  *   0.07956254  *
    20       H         -0.01963073  *   0.79643004  *  -1.39860696  *
    21       H          0.34355153  *   0.19156273  *   1.25067941  *
    22       H          3.09930304  *   1.68497377  *   0.73589868  *
    23       H          4.89007815  *  -1.06255789  *   1.41483554  *
    24       H          4.24015722  *  -2.21174596  *   0.20568302  *
    25       H          6.24112781  *  -0.31737844  *  -0.41828214  *
    26       H          5.11488690  *  -0.94139038  *  -1.62895603  *
    27       H          4.40687169  *   1.29256233  *  -1.86381465  *
    28       H          5.15411908  *   1.77486422  *  -0.33889460  *
    29       H         -0.38601216  *  -1.81597878  *  -1.01982883  *
    30       H         -0.52370979  *  -2.19601358  *   0.68503428  *
    31       H         -1.98507225  *  -0.64615439  *   2.18377285  *
    32       H         -4.19750677  *   0.47367351  *   2.28249106  *
    33       H         -4.35378044  *   0.55939796  *  -2.04078959  *
    34       H         -2.12437900  *  -0.57028055  *  -2.13394648  *
    35       H         -5.97015774  *   1.37337544  *   0.98274258  *

                             CARTESIAN COORDINATES

   1    N        0.782516777     0.603421753    -0.796907153
   2    C        0.585016641    -0.367398161     0.302218573
   3    C        1.882850128    -1.169462948     0.547258210
   4    N        3.069719608    -0.429186422     0.528792294
   5    C        3.153198609     0.924151578    -0.090686539
   6    C        1.998496995     1.224468008    -1.058375952
   7    C        4.386287107    -1.132161350     0.426754288
   8    C        5.169891995    -0.393695220    -0.670019526
   9    C        4.523069575     0.995541001    -0.801561295
  10    C       -0.562221325    -1.339701625    -0.031792456
  11    C       -1.903316644    -0.668765418     0.021267455
  12    O        1.880557319    -2.348552521     0.852638805
  13    O        2.096085419     1.999738538    -1.993692350
  14    C       -2.496364084    -0.377843735     1.258649110
  15    C       -3.741946423     0.249815665     1.323406020
  16    C       -4.384457504     0.576783891     0.121352775
  17    C       -3.816941090     0.291420362    -1.132804683
  18    C       -2.574534768    -0.333494783    -1.169078009
  19    O       -5.610754901     1.195581541     0.079562544
  20    H       -0.019630727     0.796430037    -1.398606963
  21    H        0.343551532     0.191562734     1.250679406
  22    H        3.099303037     1.684973773     0.735898675
  23    H        4.890078154    -1.062557892     1.414835536
  24    H        4.240157224    -2.211745961     0.205683022
  25    H        6.241127805    -0.317378436    -0.418282140
  26    H        5.114886898    -0.941390383    -1.628956033
  27    H        4.406871691     1.292562335    -1.863814652
  28    H        5.154119081     1.774864225    -0.338894599
  29    H       -0.386012164    -1.815978784    -1.019828831
  30    H       -0.523709791    -2.196013581     0.685034276
  31    H       -1.985072246    -0.646154393     2.183772847
  32    H       -4.197506773     0.473673507     2.282491061
  33    H       -4.353780443     0.559397958    -2.040789589
  34    H       -2.124379001    -0.570280545    -2.133946484
  35    H       -5.970157741     1.373375444     0.982742583


           Empirical Formula: C14 H16 N2 O3  =    35 atoms



      MOLECULAR POINT GROUP   :   C1  


                  EIGENVALUES  
 -33.44850 -32.48200 -31.43741 -31.19661 -31.14914 -30.14428 -28.00598 -27.79452
 -26.63319 -26.47260 -25.55657 -23.63843 -22.66764 -22.32676 -22.07220 -20.78605
 -20.67269 -19.00928 -18.67525 -18.54948 -18.08974 -17.39410 -16.80791 -16.22992
 -16.04658 -15.90253 -15.33446 -15.22561 -14.93831 -14.92408 -14.79474 -14.66403
 -14.55114 -14.08213 -13.97386 -13.79240 -13.57697 -13.08882 -12.96988 -12.88411
 -12.71282 -12.32957 -12.17236 -11.98393 -11.06815 -10.98548 -10.27173 -10.19801
  -9.77983  -9.16787  -0.16766   0.00713   0.33956   0.61351   1.02833   1.48703
   2.07362   2.15461   2.21459   2.34036   2.87166   3.01780   3.29192   3.52015
   3.65448   3.76394   4.03235   4.12019   4.18660   4.30535   4.55573   4.57726
   4.62589   4.68884   4.71415   4.74248   4.87450   5.01759   5.06998   5.22258
   5.32036   5.34065   5.43669   5.56016   5.60443   5.66440   5.80356   5.81263
   5.89094   5.89659   6.03426   6.04252


              NET ATOMIC CHARGES AND DIPOLE CONTRIBUTIONS

  ATOM NO.   TYPE          CHARGE      No. of ELECS.   s-Pop       p-Pop       
    1          N          -0.507006        5.5070     1.50137     4.00563
    2          C          -0.018455        4.0185     1.11166     2.90679
    3          C           0.528739        3.4713     1.09469     2.37657
    4          N          -0.395321        5.3953     1.55275     3.84257
    5          C          -0.039703        4.0397     1.11652     2.92319
    6          C           0.538643        3.4614     1.08813     2.37323
    7          C          -0.080394        4.0804     1.09761     2.98278
    8          C          -0.289572        4.2896     1.09485     3.19472
    9          C          -0.271270        4.2713     1.09681     3.17446
   10          C          -0.310346        4.3103     1.09077     3.21958
   11          C          -0.061916        4.0619     1.08651     2.97541
   12          O          -0.523593        6.5236     1.85485     4.66874
   13          O          -0.526754        6.5268     1.85554     4.67122
   14          C          -0.064024        4.0640     1.10485     2.95918
   15          C          -0.344036        4.3440     1.10780     3.23624
   16          C           0.324602        3.6754     1.08090     2.59450
   17          C          -0.267560        4.2676     1.10495     3.16261
   18          C          -0.089197        4.0892     1.10762     2.98158
   19          O          -0.469636        6.4696     1.80641     4.66323
   20          H           0.296984        0.7030     0.70302
   21          H           0.161624        0.8384     0.83838
   22          H           0.165051        0.8349     0.83495
   23          H           0.143734        0.8563     0.85627
   24          H           0.155725        0.8443     0.84427
   25          H           0.147236        0.8528     0.85276
   26          H           0.149427        0.8506     0.85057
   27          H           0.172230        0.8278     0.82777
   28          H           0.149008        0.8510     0.85099
   29          H           0.167924        0.8321     0.83208
   30          H           0.188451        0.8115     0.81155
   31          H           0.147182        0.8528     0.85282
   32          H           0.167680        0.8323     0.83232
   33          H           0.182021        0.8180     0.81798
   34          H           0.149281        0.8507     0.85072
   35          H           0.323243        0.6768     0.67676
 DIPOLE           X         Y         Z       TOTAL
 POINT-CHG.     1.433     0.161     2.555     2.934
 HYBRID        -0.793     0.139    -0.202     0.830
 SUM            0.639     0.300     2.353     2.457


          ATOMIC ORBITAL ELECTRON POPULATIONS

     Atom    s        px        py        pz   
    1  N   1.50137   1.20074   1.45025   1.35465
    2  C   1.11166   0.98955   0.94834   0.96891
    3  C   1.09469   0.84215   0.80935   0.72507
    4  N   1.55275   1.11001   1.12923   1.60333
    5  C   1.11652   0.99501   0.90634   1.02184
    6  C   1.08813   0.81695   0.75327   0.80301
    7  C   1.09761   0.85989   1.05201   1.07088
    8  C   1.09485   1.09175   1.01171   1.09125
    9  C   1.09681   0.99148   1.03896   1.14402
   10  C   1.09077   0.96722   1.05972   1.19264
   11  C   1.08651   0.96829   1.03834   0.96878
   12  O   1.85485   1.84825   1.29074   1.52976
   13  O   1.85554   1.81656   1.44839   1.40626
   14  C   1.10485   0.97091   0.95252   1.03574
   15  C   1.10780   1.05043   1.12519   1.06062
   16  C   1.08090   0.78167   0.86538   0.94744
   17  C   1.10495   1.02837   1.08337   1.05088
   18  C   1.10762   0.97800   0.96088   1.04269
   19  O   1.80641   1.42514   1.77482   1.46327
   20  H   0.70302
   21  H   0.83838
   22  H   0.83495
   23  H   0.85627
   24  H   0.84427
   25  H   0.85276
   26  H   0.85057
   27  H   0.82777
   28  H   0.85099
   29  H   0.83208
   30  H   0.81155
   31  H   0.85282
   32  H   0.83232
   33  H   0.81798
   34  H   0.85072
   35  H   0.67676

 **********************
 *                    *
 * JOB ENDED NORMALLY *
 *                    *
 **********************



 TOTAL JOB TIME:             9.27 SECONDS

 == MOPAC DONE ==
