 *******************************************************************************
 ** Site#: 35412        For non-commercial use only    Version 20.225L 64BITS **
 *******************************************************************************
 ** Cite this program as: MOPAC2016, Version: 20.225L, James J. P. Stewart,   **
 ** Stewart Computational Chemistry, web: HTTP://OpenMOPAC.net. Days left: 364**
 *******************************************************************************
 **                                                                           **
 **                                MOPAC2016                                  **
 **                                                                           **
 *******************************************************************************

                              PM6 CALCULATION RESULTS

 *******************************************************************************
 *  CALCULATION DONE:                                Fri Aug 14 20:42:28 2020  *
 *  PM6        - The PM6 Hamiltonian to be used
 *  SINGLET    - SPIN STATE DEFINED AS A SINGLET
 *  OPT        - OPTIMIZE COORDINATES OF ALL ATOMS
 *
 *
 *
 *                 CHARGE ON SYSTEM = 0
 *
 *
 *
 *  PRECISE    - CRITERIA TO BE INCREASED BY 100 TIMES
 *  T=         - A TIME OF 172800.0 SECONDS REQUESTED
 *  DUMP=N     - RESTART FILE WRITTEN EVERY 7200.0 SECONDS REQUESTED
 *  AUX        - OUTPUT AUXILIARY INFORMATION
 *  PRTXYZ     - PRINT CARTESIAN COORDINATES
 *  LARGE      - EXPANDED OUTPUT TO BE PRINTED
 *******************************************************************************
 AUX LARGE CHARGE=0 SINGLET  PM6  OPT PRECISE PRTXYZ
 CN289.pdb
 50
   ATOM   CHEMICAL          X               Y               Z
  NUMBER   SYMBOL      (ANGSTROMS)     (ANGSTROMS)     (ANGSTROMS)
 
     1       C          7.79600000  * -10.77000000  *  -0.61900000  *
     2       C          7.88100000  * -11.98700000  *   0.06200000  *
     3       C          9.10100000  * -12.38500000  *   0.60500000  *
     4       C         10.22300000  * -11.58300000  *   0.47100000  *
     5       C         10.12600000  * -10.38200000  *  -0.20700000  *
     6       C          8.92300000  *  -9.97000000  *  -0.75400000  *
     7       O         11.42400000  * -11.97300000  *   1.00600000  *
     8       C         12.56300000  * -11.20800000  *   0.89200000  *
     9       C         12.55300000  * -10.03100000  *   0.24900000  *
    10       C         11.27000000  *  -9.57100000  *  -0.34200000  *
    11       O         11.17400000  *  -8.50100000  *  -0.94900000  *
    12       C         13.82400000  *  -9.21600000  *   0.14300000  *
    13       C         14.97600000  *  -9.79400000  *  -0.38600000  *
    14       C         16.15100000  *  -9.06000000  *  -0.49100000  *
    15       C         16.18800000  *  -7.73700000  *  -0.06700000  *
    16       C         15.04600000  *  -7.15100000  *   0.46100000  *
    17       C         13.87100000  *  -7.88700000  *   0.56600000  *
    18       O          6.76500000  * -12.85800000  *   0.24200000  *
    19       O          5.02600000  * -11.36000000  *  -0.49500000  *
    20       C          5.58500000  * -12.67900000  *  -0.65500000  *
    21       C          2.72300000  * -12.19500000  *  -0.97800000  *
    22       C          3.83100000  * -11.17200000  *  -1.33600000  *
    23       O          1.55200000  * -12.05400000  *  -1.80800000  *
    24       O          2.27200000  * -14.47500000  *  -0.87100000  *
    25       O          4.96500000  * -14.98400000  *  -0.42000000  *
    26       C          3.28100000  *  -9.79000000  *  -1.07700000  *
    27       C          4.48800000  * -13.71400000  *  -0.27400000  *
    28       C          3.27200000  * -13.55000000  *  -1.18900000  *
    29       O          2.11700000  *  -9.59100000  *  -1.86000000  *
    30       O         17.36100000  *  -7.00000000  *  -0.17100000  *
    31       H          6.88300000  * -10.44300000  *  -1.03500000  *
    32       H          9.17600000  * -13.30100000  *   1.12400000  *
    33       H          8.87200000  *  -9.04300000  *  -1.27100000  *
    34       H         13.46400000  * -11.56400000  *   1.32600000  *
    35       H         14.96800000  * -10.80000000  *  -0.71400000  *
    36       H         17.02300000  *  -9.51300000  *  -0.89600000  *
    37       H         15.06900000  *  -6.13700000  *   0.78800000  *
    38       H         13.00900000  *  -7.42600000  *   0.97100000  *
    39       H          5.88500000  * -12.83300000  *  -1.70500000  *
    40       H          2.43300000  * -12.07400000  *   0.07700000  *
    41       H          4.10900000  * -11.29000000  *  -2.39400000  *
    42       H          1.16600000  * -11.16400000  *  -1.66400000  *
    43       H          1.99800000  * -14.35400000  *   0.06900000  *
    44       H          5.22700000  * -15.17800000  *  -1.35900000  *
    45       H          3.01700000  *  -9.71200000  *  -0.01400000  *
    46       H          4.03300000  *  -9.03400000  *  -1.32900000  *
    47       H          4.18400000  * -13.56000000  *   0.77200000  *
    48       H          3.56700000  * -13.68400000  *  -2.23900000  *
    49       H          2.33100000  *  -9.62400000  *  -2.83900000  *
    50       H         18.08500000  *  -7.55700000  *  -0.56700000  *
 


          CARTESIAN COORDINATES 

    NO.       ATOM           X           Y           Z

     1         C          7.7960    -10.7700     -0.6190
     2         C          7.8810    -11.9870      0.0620
     3         C          9.1010    -12.3850      0.6050
     4         C         10.2230    -11.5830      0.4710
     5         C         10.1260    -10.3820     -0.2070
     6         C          8.9230     -9.9700     -0.7540
     7         O         11.4240    -11.9730      1.0060
     8         C         12.5630    -11.2080      0.8920
     9         C         12.5530    -10.0310      0.2490
    10         C         11.2700     -9.5710     -0.3420
    11         O         11.1740     -8.5010     -0.9490
    12         C         13.8240     -9.2160      0.1430
    13         C         14.9760     -9.7940     -0.3860
    14         C         16.1510     -9.0600     -0.4910
    15         C         16.1880     -7.7370     -0.0670
    16         C         15.0460     -7.1510      0.4610
    17         C         13.8710     -7.8870      0.5660
    18         O          6.7650    -12.8580      0.2420
    19         O          5.0260    -11.3600     -0.4950
    20         C          5.5850    -12.6790     -0.6550
    21         C          2.7230    -12.1950     -0.9780
    22         C          3.8310    -11.1720     -1.3360
    23         O          1.5520    -12.0540     -1.8080
    24         O          2.2720    -14.4750     -0.8710
    25         O          4.9650    -14.9840     -0.4200
    26         C          3.2810     -9.7900     -1.0770
    27         C          4.4880    -13.7140     -0.2740
    28         C          3.2720    -13.5500     -1.1890
    29         O          2.1170     -9.5910     -1.8600
    30         O         17.3610     -7.0000     -0.1710
    31         H          6.8830    -10.4430     -1.0350
    32         H          9.1760    -13.3010      1.1240
    33         H          8.8720     -9.0430     -1.2710
    34         H         13.4640    -11.5640      1.3260
    35         H         14.9680    -10.8000     -0.7140
    36         H         17.0230     -9.5130     -0.8960
    37         H         15.0690     -6.1370      0.7880
    38         H         13.0090     -7.4260      0.9710
    39         H          5.8850    -12.8330     -1.7050
    40         H          2.4330    -12.0740      0.0770
    41         H          4.1090    -11.2900     -2.3940
    42         H          1.1660    -11.1640     -1.6640
    43         H          1.9980    -14.3540      0.0690
    44         H          5.2270    -15.1780     -1.3590
    45         H          3.0170     -9.7120     -0.0140
    46         H          4.0330     -9.0340     -1.3290
    47         H          4.1840    -13.5600      0.7720
    48         H          3.5670    -13.6840     -2.2390
    49         H          2.3310     -9.6240     -2.8390
    50         H         18.0850     -7.5570     -0.5670

 General Reference for PM6:
 "Optimization of Parameters for Semiempirical Methods V: Modification of NDDO Approximations
 and Application to 70 Elements", J. J. P. Stewart, J. Mol. Mod., 13, 1173-1213 (2007)
 URL: https://link.springer.com/article/10.1007/s00894-007-0233-4

           Empirical Formula: C21 H20 O9  =    50 atoms



      MOLECULAR POINT GROUP   :   C1  


 SINGLET STATE CALCULATION


      RHF CALCULATION, NO. OF DOUBLY OCCUPIED LEVELS = 79


          Geometry optimization using L-BFGS
 CYCLE:     1 TIME:   0.109 TIME LEFT:  2.00D  GRAD.:   192.529 HEAT: -274.2148
 CYCLE:     2 TIME:   0.039 TIME LEFT:  2.00D  GRAD.:   189.519 HEAT: -274.5826
 CYCLE:     3 TIME:   0.055 TIME LEFT:  2.00D  GRAD.:    72.350 HEAT: -291.3559
 CYCLE:     4 TIME:   0.055 TIME LEFT:  2.00D  GRAD.:   189.556 HEAT: -274.5829
 CYCLE:     5 TIME:   0.062 TIME LEFT:  2.00D  GRAD.:    72.365 HEAT: -291.3561
 CYCLE:     6 TIME:   0.039 TIME LEFT:  2.00D  GRAD.:    62.723 HEAT: -294.8430
 CYCLE:     7 TIME:   0.047 TIME LEFT:  2.00D  GRAD.:    71.855 HEAT: -298.1396
 CYCLE:     8 TIME:   0.094 TIME LEFT:  2.00D  GRAD.:    56.188 HEAT: -299.8464
 CYCLE:     9 TIME:   0.047 TIME LEFT:  2.00D  GRAD.:    37.496 HEAT: -300.7565
 CYCLE:    10 TIME:   0.055 TIME LEFT:  2.00D  GRAD.:    33.654 HEAT: -302.3600
 CYCLE:    11 TIME:   0.070 TIME LEFT:  2.00D  GRAD.:    39.128 HEAT: -303.5981
 CYCLE:    12 TIME:   0.062 TIME LEFT:  2.00D  GRAD.:    87.696 HEAT: -303.6557
 CYCLE:    13 TIME:   0.047 TIME LEFT:  2.00D  GRAD.:    21.425 HEAT: -305.1071
 CYCLE:    14 TIME:   0.047 TIME LEFT:  2.00D  GRAD.:    17.517 HEAT: -305.3483
 CYCLE:    15 TIME:   0.047 TIME LEFT:  2.00D  GRAD.:    22.004 HEAT: -305.8457
 CYCLE:    16 TIME:   0.047 TIME LEFT:  2.00D  GRAD.:    23.730 HEAT: -306.3415
 CYCLE:    17 TIME:   0.047 TIME LEFT:  2.00D  GRAD.:    69.773 HEAT: -305.9877
 CYCLE:    18 TIME:   0.047 TIME LEFT:  2.00D  GRAD.:    14.677 HEAT: -306.9444
 CYCLE:    19 TIME:   0.047 TIME LEFT:  2.00D  GRAD.:    12.179 HEAT: -307.0719
 CYCLE:    20 TIME:   0.047 TIME LEFT:  2.00D  GRAD.:    16.519 HEAT: -307.3893
 CYCLE:    21 TIME:   0.039 TIME LEFT:  2.00D  GRAD.:    20.755 HEAT: -307.7493
 CYCLE:    22 TIME:   0.055 TIME LEFT:  2.00D  GRAD.:    46.925 HEAT: -307.8044
 CYCLE:    23 TIME:   0.055 TIME LEFT:  2.00D  GRAD.:    12.099 HEAT: -308.3080
 CYCLE:    24 TIME:   0.055 TIME LEFT:  2.00D  GRAD.:    10.730 HEAT: -308.4154
 CYCLE:    25 TIME:   0.047 TIME LEFT:  2.00D  GRAD.:    17.198 HEAT: -308.6309
 CYCLE:    26 TIME:   0.047 TIME LEFT:  2.00D  GRAD.:    31.142 HEAT: -308.6605
 CYCLE:    27 TIME:   0.047 TIME LEFT:  2.00D  GRAD.:     9.321 HEAT: -308.8354
 CYCLE:    28 TIME:   0.102 TIME LEFT:  2.00D  GRAD.:     6.719 HEAT: -308.8868
 CYCLE:    29 TIME:   0.039 TIME LEFT:  2.00D  GRAD.:     7.128 HEAT: -308.9378
 CYCLE:    30 TIME:   0.055 TIME LEFT:  2.00D  GRAD.:     7.406 HEAT: -309.0144
 CYCLE:    31 TIME:   0.047 TIME LEFT:  2.00D  GRAD.:    29.278 HEAT: -308.9577
 CYCLE:    32 TIME:   0.047 TIME LEFT:  2.00D  GRAD.:     5.952 HEAT: -309.1127
 CYCLE:    33 TIME:   0.055 TIME LEFT:  2.00D  GRAD.:     5.128 HEAT: -309.1322
 CYCLE:    34 TIME:   0.055 TIME LEFT:  2.00D  GRAD.:     6.536 HEAT: -309.1958
 CYCLE:    35 TIME:   0.047 TIME LEFT:  2.00D  GRAD.:    11.529 HEAT: -309.2615
 CYCLE:    36 TIME:   0.055 TIME LEFT:  2.00D  GRAD.:     8.792 HEAT: -309.3264
 CYCLE:    37 TIME:   0.039 TIME LEFT:  2.00D  GRAD.:     5.428 HEAT: -309.3717
 CYCLE:    38 TIME:   0.047 TIME LEFT:  2.00D  GRAD.:     6.747 HEAT: -309.4233
 CYCLE:    39 TIME:   0.047 TIME LEFT:  2.00D  GRAD.:    11.274 HEAT: -309.4656
 CYCLE:    40 TIME:   0.039 TIME LEFT:  2.00D  GRAD.:     9.585 HEAT: -309.5298
 CYCLE:    41 TIME:   0.047 TIME LEFT:  2.00D  GRAD.:    15.399 HEAT: -309.6193
 CYCLE:    42 TIME:   0.055 TIME LEFT:  2.00D  GRAD.:    11.465 HEAT: -309.6990
 CYCLE:    43 TIME:   0.047 TIME LEFT:  2.00D  GRAD.:     7.907 HEAT: -309.7513
 CYCLE:    44 TIME:   0.047 TIME LEFT:  2.00D  GRAD.:     8.391 HEAT: -309.8446
 CYCLE:    45 TIME:   0.047 TIME LEFT:  2.00D  GRAD.:     7.986 HEAT: -309.9223
 CYCLE:    46 TIME:   0.047 TIME LEFT:  2.00D  GRAD.:    14.652 HEAT: -309.9797
 CYCLE:    47 TIME:   0.055 TIME LEFT:  2.00D  GRAD.:     7.047 HEAT: -310.0602
 CYCLE:    48 TIME:   0.047 TIME LEFT:  2.00D  GRAD.:     8.207 HEAT: -310.1000
 CYCLE:    49 TIME:   0.094 TIME LEFT:  2.00D  GRAD.:     9.859 HEAT: -310.1432
 CYCLE:    50 TIME:   0.047 TIME LEFT:  2.00D  GRAD.:     6.938 HEAT: -310.2038
 CYCLE:    51 TIME:   0.047 TIME LEFT:  2.00D  GRAD.:     5.466 HEAT: -310.2562
 CYCLE:    52 TIME:   0.039 TIME LEFT:  2.00D  GRAD.:    10.542 HEAT: -310.2993
 CYCLE:    53 TIME:   0.062 TIME LEFT:  2.00D  GRAD.:     7.871 HEAT: -310.3755
 CYCLE:    54 TIME:   0.039 TIME LEFT:  2.00D  GRAD.:    10.491 HEAT: -310.5079
 CYCLE:    55 TIME:   0.055 TIME LEFT:  2.00D  GRAD.:    17.449 HEAT: -310.5418
 CYCLE:    56 TIME:   0.055 TIME LEFT:  2.00D  GRAD.:    19.844 HEAT: -310.7012
 CYCLE:    57 TIME:   0.039 TIME LEFT:  2.00D  GRAD.:    11.379 HEAT: -310.9722
 CYCLE:    58 TIME:   0.055 TIME LEFT:  2.00D  GRAD.:    25.051 HEAT: -310.8889
 CYCLE:    59 TIME:   0.039 TIME LEFT:  2.00D  GRAD.:    31.161 HEAT: -311.0571
 CYCLE:    60 TIME:   0.047 TIME LEFT:  2.00D  GRAD.:    14.554 HEAT: -311.2616
 CYCLE:    61 TIME:   0.047 TIME LEFT:  2.00D  GRAD.:     9.201 HEAT: -311.3892
 CYCLE:    62 TIME:   0.047 TIME LEFT:  2.00D  GRAD.:    13.125 HEAT: -311.4895
 CYCLE:    63 TIME:   0.039 TIME LEFT:  2.00D  GRAD.:    27.732 HEAT: -311.6020
 CYCLE:    64 TIME:   0.047 TIME LEFT:  2.00D  GRAD.:    13.896 HEAT: -311.7687
 CYCLE:    65 TIME:   0.055 TIME LEFT:  2.00D  GRAD.:     8.920 HEAT: -311.8710
 CYCLE:    66 TIME:   0.039 TIME LEFT:  2.00D  GRAD.:     9.591 HEAT: -311.9316
 CYCLE:    67 TIME:   0.047 TIME LEFT:  2.00D  GRAD.:    10.814 HEAT: -312.0348
 CYCLE:    68 TIME:   0.039 TIME LEFT:  2.00D  GRAD.:    22.067 HEAT: -312.0444
 CYCLE:    69 TIME:   0.047 TIME LEFT:  2.00D  GRAD.:     6.036 HEAT: -312.1354
 CYCLE:    70 TIME:   0.086 TIME LEFT:  2.00D  GRAD.:     4.744 HEAT: -312.1547
 CYCLE:    71 TIME:   0.055 TIME LEFT:  2.00D  GRAD.:     4.801 HEAT: -312.1854
 CYCLE:    72 TIME:   0.039 TIME LEFT:  2.00D  GRAD.:    10.261 HEAT: -312.2149
 CYCLE:    73 TIME:   0.039 TIME LEFT:  2.00D  GRAD.:     5.173 HEAT: -312.2492
 CYCLE:    74 TIME:   0.055 TIME LEFT:  2.00D  GRAD.:     5.104 HEAT: -312.2734
 CYCLE:    75 TIME:   0.047 TIME LEFT:  2.00D  GRAD.:     6.003 HEAT: -312.3139
 CYCLE:    76 TIME:   0.047 TIME LEFT:  2.00D  GRAD.:    18.399 HEAT: -312.3008
 CYCLE:    77 TIME:   0.039 TIME LEFT:  2.00D  GRAD.:     5.041 HEAT: -312.3566
 CYCLE:    78 TIME:   0.039 TIME LEFT:  2.00D  GRAD.:     3.117 HEAT: -312.3681
 CYCLE:    79 TIME:   0.047 TIME LEFT:  2.00D  GRAD.:     4.052 HEAT: -312.3851
 CYCLE:    80 TIME:   0.047 TIME LEFT:  2.00D  GRAD.:     4.985 HEAT: -312.4008
 CYCLE:    81 TIME:   0.055 TIME LEFT:  2.00D  GRAD.:     9.541 HEAT: -312.4095
 CYCLE:    82 TIME:   0.047 TIME LEFT:  2.00D  GRAD.:     3.198 HEAT: -312.4295
 CYCLE:    83 TIME:   0.047 TIME LEFT:  2.00D  GRAD.:     3.284 HEAT: -312.4367
 CYCLE:    84 TIME:   0.047 TIME LEFT:  2.00D  GRAD.:     3.970 HEAT: -312.4517
 CYCLE:    85 TIME:   0.047 TIME LEFT:  2.00D  GRAD.:     5.926 HEAT: -312.4742
 CYCLE:    86 TIME:   0.047 TIME LEFT:  2.00D  GRAD.:     7.817 HEAT: -312.4826
 CYCLE:    87 TIME:   0.047 TIME LEFT:  2.00D  GRAD.:     2.732 HEAT: -312.4988
 CYCLE:    88 TIME:   0.047 TIME LEFT:  2.00D  GRAD.:     2.713 HEAT: -312.5053
 CYCLE:    89 TIME:   0.039 TIME LEFT:  2.00D  GRAD.:     3.808 HEAT: -312.5157
 CYCLE:    90 TIME:   0.039 TIME LEFT:  2.00D  GRAD.:     7.162 HEAT: -312.5253
 CYCLE:    91 TIME:   0.047 TIME LEFT:  2.00D  GRAD.:     3.556 HEAT: -312.5384
 CYCLE:    92 TIME:   0.062 TIME LEFT:  2.00D  GRAD.:     2.756 HEAT: -312.5476
 CYCLE:    93 TIME:   0.094 TIME LEFT:  2.00D  GRAD.:     3.345 HEAT: -312.5569
 CYCLE:    94 TIME:   0.047 TIME LEFT:  2.00D  GRAD.:     4.037 HEAT: -312.5706
 CYCLE:    95 TIME:   0.055 TIME LEFT:  2.00D  GRAD.:     7.916 HEAT: -312.5782
 CYCLE:    96 TIME:   0.039 TIME LEFT:  2.00D  GRAD.:     3.055 HEAT: -312.5951
 CYCLE:    97 TIME:   0.055 TIME LEFT:  2.00D  GRAD.:     3.427 HEAT: -312.6055
 CYCLE:    98 TIME:   0.047 TIME LEFT:  2.00D  GRAD.:     4.718 HEAT: -312.6207
 CYCLE:    99 TIME:   0.039 TIME LEFT:  2.00D  GRAD.:     7.207 HEAT: -312.6381
 CYCLE:   100 TIME:   0.039 TIME LEFT:  2.00D  GRAD.:     4.570 HEAT: -312.6588
 CYCLE:   101 TIME:   0.047 TIME LEFT:  2.00D  GRAD.:     3.553 HEAT: -312.6759
 CYCLE:   102 TIME:   0.039 TIME LEFT:  2.00D  GRAD.:     4.480 HEAT: -312.6959
 CYCLE:   103 TIME:   0.055 TIME LEFT:  2.00D  GRAD.:     7.895 HEAT: -312.7042
 CYCLE:   104 TIME:   0.047 TIME LEFT:  2.00D  GRAD.:     3.812 HEAT: -312.7172
 CYCLE:   105 TIME:   0.039 TIME LEFT:  2.00D  GRAD.:     2.924 HEAT: -312.7286
 CYCLE:   106 TIME:   0.047 TIME LEFT:  2.00D  GRAD.:     3.631 HEAT: -312.7368
 CYCLE:   107 TIME:   0.047 TIME LEFT:  2.00D  GRAD.:     4.594 HEAT: -312.7545
 CYCLE:   108 TIME:   0.055 TIME LEFT:  2.00D  GRAD.:     8.817 HEAT: -312.7626
 CYCLE:   109 TIME:   0.047 TIME LEFT:  2.00D  GRAD.:     3.404 HEAT: -312.7848
 CYCLE:   110 TIME:   0.039 TIME LEFT:  2.00D  GRAD.:     3.016 HEAT: -312.7948
 CYCLE:   111 TIME:   0.047 TIME LEFT:  2.00D  GRAD.:     5.148 HEAT: -312.8117
 CYCLE:   112 TIME:   0.039 TIME LEFT:  2.00D  GRAD.:     4.385 HEAT: -312.8296
 CYCLE:   113 TIME:   0.039 TIME LEFT:  2.00D  GRAD.:     4.481 HEAT: -312.8450
 CYCLE:   114 TIME:   0.062 TIME LEFT:  2.00D  GRAD.:     3.971 HEAT: -312.8584
 CYCLE:   115 TIME:   0.086 TIME LEFT:  2.00D  GRAD.:     3.518 HEAT: -312.8732
 CYCLE:   116 TIME:   0.039 TIME LEFT:  2.00D  GRAD.:     9.382 HEAT: -312.8936
 CYCLE:   117 TIME:   0.047 TIME LEFT:  2.00D  GRAD.:     4.904 HEAT: -312.9169
 CYCLE:   118 TIME:   0.047 TIME LEFT:  2.00D  GRAD.:     4.078 HEAT: -312.9303
 CYCLE:   119 TIME:   0.039 TIME LEFT:  2.00D  GRAD.:     5.057 HEAT: -312.9642
 CYCLE:   120 TIME:   0.047 TIME LEFT:  2.00D  GRAD.:    12.945 HEAT: -312.9763
 CYCLE:   121 TIME:   0.039 TIME LEFT:  2.00D  GRAD.:     5.927 HEAT: -313.0171
 CYCLE:   122 TIME:   0.047 TIME LEFT:  2.00D  GRAD.:     7.121 HEAT: -313.0305
 CYCLE:   123 TIME:   0.039 TIME LEFT:  2.00D  GRAD.:     6.704 HEAT: -313.0670
 CYCLE:   124 TIME:   0.055 TIME LEFT:  2.00D  GRAD.:     8.968 HEAT: -313.1023
 CYCLE:   125 TIME:   0.055 TIME LEFT:  2.00D  GRAD.:     7.371 HEAT: -313.1701
 CYCLE:   126 TIME:   0.039 TIME LEFT:  2.00D  GRAD.:     8.109 HEAT: -313.2299
 CYCLE:   127 TIME:   0.055 TIME LEFT:  2.00D  GRAD.:    11.282 HEAT: -313.3090
 CYCLE:   128 TIME:   0.047 TIME LEFT:  2.00D  GRAD.:    10.777 HEAT: -313.3920
 CYCLE:   129 TIME:   0.055 TIME LEFT:  2.00D  GRAD.:    14.768 HEAT: -313.4407
 CYCLE:   130 TIME:   0.047 TIME LEFT:  2.00D  GRAD.:    37.107 HEAT: -313.3779
 CYCLE:   131 TIME:   0.055 TIME LEFT:  2.00D  GRAD.:    11.275 HEAT: -313.6839
 CYCLE:   132 TIME:   0.039 TIME LEFT:  2.00D  GRAD.:    11.884 HEAT: -313.7491
 CYCLE:   133 TIME:   0.047 TIME LEFT:  2.00D  GRAD.:    28.020 HEAT: -313.8728
 CYCLE:   134 TIME:   0.039 TIME LEFT:  2.00D  GRAD.:    13.305 HEAT: -314.0611
 CYCLE:   135 TIME:   0.039 TIME LEFT:  2.00D  GRAD.:    10.740 HEAT: -314.1811
 CYCLE:   136 TIME:   0.047 TIME LEFT:  2.00D  GRAD.:    12.906 HEAT: -314.2572
 CYCLE:   137 TIME:   0.102 TIME LEFT:  2.00D  GRAD.:    28.520 HEAT: -314.3406
 CYCLE:   138 TIME:   0.039 TIME LEFT:  2.00D  GRAD.:    11.477 HEAT: -314.4930
 CYCLE:   139 TIME:   0.039 TIME LEFT:  2.00D  GRAD.:     9.533 HEAT: -314.5462
 CYCLE:   140 TIME:   0.047 TIME LEFT:  2.00D  GRAD.:    11.168 HEAT: -314.6132
 CYCLE:   141 TIME:   0.047 TIME LEFT:  2.00D  GRAD.:    10.093 HEAT: -314.7144
 CYCLE:   142 TIME:   0.047 TIME LEFT:  2.00D  GRAD.:    12.129 HEAT: -314.7812
 CYCLE:   143 TIME:   0.039 TIME LEFT:  2.00D  GRAD.:     7.647 HEAT: -314.8463
 CYCLE:   144 TIME:   0.039 TIME LEFT:  2.00D  GRAD.:     5.702 HEAT: -314.8766
 CYCLE:   145 TIME:   0.047 TIME LEFT:  2.00D  GRAD.:     4.886 HEAT: -314.9138
 CYCLE:   146 TIME:   0.047 TIME LEFT:  2.00D  GRAD.:     6.892 HEAT: -314.9426
 CYCLE:   147 TIME:   0.047 TIME LEFT:  2.00D  GRAD.:     6.578 HEAT: -314.9747
 CYCLE:   148 TIME:   0.039 TIME LEFT:  2.00D  GRAD.:     4.683 HEAT: -315.0012
 CYCLE:   149 TIME:   0.047 TIME LEFT:  2.00D  GRAD.:     4.740 HEAT: -315.0304
 CYCLE:   150 TIME:   0.047 TIME LEFT:  2.00D  GRAD.:     7.508 HEAT: -315.0562
 CYCLE:   151 TIME:   0.047 TIME LEFT:  2.00D  GRAD.:     4.302 HEAT: -315.0865
 CYCLE:   152 TIME:   0.039 TIME LEFT:  2.00D  GRAD.:     3.830 HEAT: -315.1076
 CYCLE:   153 TIME:   0.039 TIME LEFT:  2.00D  GRAD.:     5.487 HEAT: -315.1262
 CYCLE:   154 TIME:   0.055 TIME LEFT:  2.00D  GRAD.:     3.956 HEAT: -315.1417
 CYCLE:   155 TIME:   0.039 TIME LEFT:  2.00D  GRAD.:     3.292 HEAT: -315.1534
 CYCLE:   156 TIME:   0.039 TIME LEFT:  2.00D  GRAD.:     4.542 HEAT: -315.1674
 CYCLE:   157 TIME:   0.047 TIME LEFT:  2.00D  GRAD.:     5.275 HEAT: -315.1789
 CYCLE:   158 TIME:   0.047 TIME LEFT:  2.00D  GRAD.:     4.136 HEAT: -315.1910
 CYCLE:   159 TIME:   0.039 TIME LEFT:  2.00D  GRAD.:     5.205 HEAT: -315.2173
 CYCLE:   160 TIME:   0.102 TIME LEFT:  2.00D  GRAD.:     6.800 HEAT: -315.2327
 CYCLE:   161 TIME:   0.039 TIME LEFT:  2.00D  GRAD.:     5.225 HEAT: -315.2487
 CYCLE:   162 TIME:   0.047 TIME LEFT:  2.00D  GRAD.:     4.595 HEAT: -315.2789
 CYCLE:   163 TIME:   0.047 TIME LEFT:  2.00D  GRAD.:     9.446 HEAT: -315.2897
 CYCLE:   164 TIME:   0.055 TIME LEFT:  2.00D  GRAD.:     4.768 HEAT: -315.3068
 CYCLE:   165 TIME:   0.047 TIME LEFT:  2.00D  GRAD.:     3.286 HEAT: -315.3235
 CYCLE:   166 TIME:   0.047 TIME LEFT:  2.00D  GRAD.:     4.208 HEAT: -315.3369
 CYCLE:   167 TIME:   0.047 TIME LEFT:  2.00D  GRAD.:     4.306 HEAT: -315.3588
 CYCLE:   168 TIME:   0.039 TIME LEFT:  2.00D  GRAD.:     9.511 HEAT: -315.3721
 CYCLE:   169 TIME:   0.047 TIME LEFT:  2.00D  GRAD.:     3.806 HEAT: -315.4005
 CYCLE:   170 TIME:   0.047 TIME LEFT:  2.00D  GRAD.:     3.402 HEAT: -315.4128
 CYCLE:   171 TIME:   0.039 TIME LEFT:  2.00D  GRAD.:     3.879 HEAT: -315.4401
 CYCLE:   172 TIME:   0.039 TIME LEFT:  2.00D  GRAD.:     7.573 HEAT: -315.4661
 CYCLE:   173 TIME:   0.039 TIME LEFT:  2.00D  GRAD.:     5.827 HEAT: -315.4923
 CYCLE:   174 TIME:   0.047 TIME LEFT:  2.00D  GRAD.:     3.535 HEAT: -315.5115
 CYCLE:   175 TIME:   0.047 TIME LEFT:  2.00D  GRAD.:     3.907 HEAT: -315.5295
 CYCLE:   176 TIME:   0.047 TIME LEFT:  2.00D  GRAD.:     7.150 HEAT: -315.5437
 CYCLE:   177 TIME:   0.055 TIME LEFT:  2.00D  GRAD.:     3.561 HEAT: -315.5618
 CYCLE:   178 TIME:   0.055 TIME LEFT:  2.00D  GRAD.:     2.654 HEAT: -315.5726
 CYCLE:   179 TIME:   0.039 TIME LEFT:  2.00D  GRAD.:     3.319 HEAT: -315.5817
 CYCLE:   180 TIME:   0.039 TIME LEFT:  2.00D  GRAD.:     4.982 HEAT: -315.5914
 CYCLE:   181 TIME:   0.047 TIME LEFT:  2.00D  GRAD.:     2.943 HEAT: -315.6011
 CYCLE:   182 TIME:   0.094 TIME LEFT:  2.00D  GRAD.:     2.878 HEAT: -315.6123
 CYCLE:   183 TIME:   0.055 TIME LEFT:  2.00D  GRAD.:     3.165 HEAT: -315.6214
 CYCLE:   184 TIME:   0.055 TIME LEFT:  2.00D  GRAD.:     6.854 HEAT: -315.6321
 CYCLE:   185 TIME:   0.047 TIME LEFT:  2.00D  GRAD.:     3.219 HEAT: -315.6460
 CYCLE:   186 TIME:   0.039 TIME LEFT:  2.00D  GRAD.:     2.521 HEAT: -315.6521
 CYCLE:   187 TIME:   0.047 TIME LEFT:  2.00D  GRAD.:     3.023 HEAT: -315.6619
 CYCLE:   188 TIME:   0.047 TIME LEFT:  2.00D  GRAD.:     8.555 HEAT: -315.6667
 CYCLE:   189 TIME:   0.047 TIME LEFT:  2.00D  GRAD.:     3.678 HEAT: -315.6791
 CYCLE:   190 TIME:   0.047 TIME LEFT:  2.00D  GRAD.:     2.189 HEAT: -315.6874
 CYCLE:   191 TIME:   0.039 TIME LEFT:  2.00D  GRAD.:     2.645 HEAT: -315.6928
 CYCLE:   192 TIME:   0.039 TIME LEFT:  2.00D  GRAD.:     3.038 HEAT: -315.7036
 CYCLE:   193 TIME:   0.062 TIME LEFT:  2.00D  GRAD.:     6.424 HEAT: -315.7094
 CYCLE:   194 TIME:   0.039 TIME LEFT:  2.00D  GRAD.:     2.663 HEAT: -315.7216
 CYCLE:   195 TIME:   0.039 TIME LEFT:  2.00D  GRAD.:     2.102 HEAT: -315.7268
 CYCLE:   196 TIME:   0.039 TIME LEFT:  2.00D  GRAD.:     3.493 HEAT: -315.7347
 CYCLE:   197 TIME:   0.047 TIME LEFT:  2.00D  GRAD.:     6.259 HEAT: -315.7404
 CYCLE:   198 TIME:   0.047 TIME LEFT:  2.00D  GRAD.:     2.925 HEAT: -315.7489
 CYCLE:   199 TIME:   0.047 TIME LEFT:  2.00D  GRAD.:     2.492 HEAT: -315.7560
 CYCLE:   200 TIME:   0.055 TIME LEFT:  2.00D  GRAD.:     2.762 HEAT: -315.7617
 CYCLE:   201 TIME:   0.047 TIME LEFT:  2.00D  GRAD.:     3.462 HEAT: -315.7746
 CYCLE:   202 TIME:   0.047 TIME LEFT:  2.00D  GRAD.:     9.022 HEAT: -315.7712
 CYCLE:   203 TIME:   0.039 TIME LEFT:  2.00D  GRAD.:     2.210 HEAT: -315.7875
 CYCLE:   204 TIME:   0.109 TIME LEFT:  2.00D  GRAD.:     1.839 HEAT: -315.7913
 CYCLE:   205 TIME:   0.055 TIME LEFT:  2.00D  GRAD.:     2.454 HEAT: -315.7997
 CYCLE:   206 TIME:   0.047 TIME LEFT:  2.00D  GRAD.:     7.301 HEAT: -315.8009
 CYCLE:   207 TIME:   0.039 TIME LEFT:  2.00D  GRAD.:     2.605 HEAT: -315.8106
 CYCLE:   208 TIME:   0.047 TIME LEFT:  2.00D  GRAD.:     1.897 HEAT: -315.8149
 CYCLE:   209 TIME:   0.039 TIME LEFT:  2.00D  GRAD.:     2.619 HEAT: -315.8208
 CYCLE:   210 TIME:   0.047 TIME LEFT:  2.00D  GRAD.:     3.151 HEAT: -315.8292
 CYCLE:   211 TIME:   0.047 TIME LEFT:  2.00D  GRAD.:     6.156 HEAT: -315.8377
 CYCLE:   212 TIME:   0.039 TIME LEFT:  2.00D  GRAD.:     2.941 HEAT: -315.8525
 CYCLE:   213 TIME:   0.055 TIME LEFT:  2.00D  GRAD.:     2.587 HEAT: -315.8606
 CYCLE:   214 TIME:   0.047 TIME LEFT:  2.00D  GRAD.:     5.541 HEAT: -315.8719
 CYCLE:   215 TIME:   0.039 TIME LEFT:  2.00D  GRAD.:     3.524 HEAT: -315.8799
 CYCLE:   216 TIME:   0.055 TIME LEFT:  2.00D  GRAD.:     2.643 HEAT: -315.8861
 CYCLE:   217 TIME:   0.039 TIME LEFT:  2.00D  GRAD.:     3.441 HEAT: -315.8993
 CYCLE:   218 TIME:   0.047 TIME LEFT:  2.00D  GRAD.:     5.586 HEAT: -315.9086
 CYCLE:   219 TIME:   0.039 TIME LEFT:  2.00D  GRAD.:     3.726 HEAT: -315.9191
 CYCLE:   220 TIME:   0.047 TIME LEFT:  2.00D  GRAD.:     2.937 HEAT: -315.9360
 CYCLE:   221 TIME:   0.039 TIME LEFT:  2.00D  GRAD.:     4.622 HEAT: -315.9538
 CYCLE:   222 TIME:   0.047 TIME LEFT:  2.00D  GRAD.:     5.649 HEAT: -315.9728
 CYCLE:   223 TIME:   0.039 TIME LEFT:  2.00D  GRAD.:     4.732 HEAT: -316.0021
 CYCLE:   224 TIME:   0.047 TIME LEFT:  2.00D  GRAD.:    10.679 HEAT: -316.0054
 CYCLE:   225 TIME:   0.047 TIME LEFT:  2.00D  GRAD.:     4.973 HEAT: -316.0437
 CYCLE:   226 TIME:   0.102 TIME LEFT:  2.00D  GRAD.:     6.030 HEAT: -316.0490
 CYCLE:   227 TIME:   0.047 TIME LEFT:  2.00D  GRAD.:     3.445 HEAT: -316.0721
 CYCLE:   228 TIME:   0.047 TIME LEFT:  2.00D  GRAD.:     4.411 HEAT: -316.0923
 CYCLE:   229 TIME:   0.039 TIME LEFT:  2.00D  GRAD.:     5.929 HEAT: -316.1230
 CYCLE:   230 TIME:   0.047 TIME LEFT:  2.00D  GRAD.:    14.086 HEAT: -316.1469
 CYCLE:   231 TIME:   0.047 TIME LEFT:  2.00D  GRAD.:     5.347 HEAT: -316.1964
 CYCLE:   232 TIME:   0.055 TIME LEFT:  2.00D  GRAD.:     5.285 HEAT: -316.2145
 CYCLE:   233 TIME:   0.047 TIME LEFT:  2.00D  GRAD.:     8.029 HEAT: -316.2534
 CYCLE:   234 TIME:   0.055 TIME LEFT:  2.00D  GRAD.:    12.294 HEAT: -316.2859
 CYCLE:   235 TIME:   0.047 TIME LEFT:  2.00D  GRAD.:    17.828 HEAT: -316.3679
 CYCLE:   236 TIME:   0.047 TIME LEFT:  2.00D  GRAD.:    10.794 HEAT: -316.4681
 CYCLE:   237 TIME:   0.047 TIME LEFT:  2.00D  GRAD.:     9.807 HEAT: -316.5668
 CYCLE:   238 TIME:   0.047 TIME LEFT:  2.00D  GRAD.:    28.741 HEAT: -316.5460
 CYCLE:   239 TIME:   0.047 TIME LEFT:  2.00D  GRAD.:    17.978 HEAT: -316.7039
 CYCLE:   240 TIME:   0.039 TIME LEFT:  2.00D  GRAD.:    16.866 HEAT: -316.7481
 CYCLE:   241 TIME:   0.047 TIME LEFT:  2.00D  GRAD.:    16.370 HEAT: -316.8713
 CYCLE:   242 TIME:   0.039 TIME LEFT:  2.00D  GRAD.:     8.450 HEAT: -316.9606
 CYCLE:   243 TIME:   0.055 TIME LEFT:  2.00D  GRAD.:     7.833 HEAT: -317.0829
 CYCLE:   244 TIME:   0.047 TIME LEFT:  2.00D  GRAD.:    11.119 HEAT: -317.2098
 CYCLE:   245 TIME:   0.039 TIME LEFT:  2.00D  GRAD.:    36.605 HEAT: -317.1984
 CYCLE:   246 TIME:   0.039 TIME LEFT:  2.00D  GRAD.:    10.230 HEAT: -317.4332
 CYCLE:   247 TIME:   0.039 TIME LEFT:  2.00D  GRAD.:     7.830 HEAT: -317.4915
 CYCLE:   248 TIME:   0.102 TIME LEFT:  2.00D  GRAD.:     8.704 HEAT: -317.6022
 CYCLE:   249 TIME:   0.047 TIME LEFT:  2.00D  GRAD.:    29.122 HEAT: -317.6581
 CYCLE:   250 TIME:   0.047 TIME LEFT:  2.00D  GRAD.:     9.287 HEAT: -317.8240
 CYCLE:   251 TIME:   0.047 TIME LEFT:  2.00D  GRAD.:     8.435 HEAT: -317.8866
 CYCLE:   252 TIME:   0.039 TIME LEFT:  2.00D  GRAD.:    10.697 HEAT: -317.9933
 CYCLE:   253 TIME:   0.047 TIME LEFT:  2.00D  GRAD.:    13.778 HEAT: -318.1197
 CYCLE:   254 TIME:   0.047 TIME LEFT:  2.00D  GRAD.:    16.865 HEAT: -318.2009
 CYCLE:   255 TIME:   0.055 TIME LEFT:  2.00D  GRAD.:     7.295 HEAT: -318.2892
 CYCLE:   256 TIME:   0.047 TIME LEFT:  2.00D  GRAD.:     8.177 HEAT: -318.3413
 CYCLE:   257 TIME:   0.039 TIME LEFT:  2.00D  GRAD.:    10.624 HEAT: -318.4157
 CYCLE:   258 TIME:   0.047 TIME LEFT:  2.00D  GRAD.:    21.956 HEAT: -318.4524
 CYCLE:   259 TIME:   0.047 TIME LEFT:  2.00D  GRAD.:     7.721 HEAT: -318.5544
 CYCLE:   260 TIME:   0.039 TIME LEFT:  2.00D  GRAD.:     5.906 HEAT: -318.5864
 CYCLE:   261 TIME:   0.047 TIME LEFT:  2.00D  GRAD.:     7.046 HEAT: -318.6267
 CYCLE:   262 TIME:   0.055 TIME LEFT:  2.00D  GRAD.:     8.773 HEAT: -318.6806
 CYCLE:   263 TIME:   0.039 TIME LEFT:  2.00D  GRAD.:    12.705 HEAT: -318.7131
 CYCLE:   264 TIME:   0.047 TIME LEFT:  2.00D  GRAD.:     4.624 HEAT: -318.7580
 CYCLE:   265 TIME:   0.047 TIME LEFT:  2.00D  GRAD.:     5.119 HEAT: -318.7786
 CYCLE:   266 TIME:   0.047 TIME LEFT:  2.00D  GRAD.:     7.335 HEAT: -318.8081
 CYCLE:   267 TIME:   0.047 TIME LEFT:  2.00D  GRAD.:     8.965 HEAT: -318.8529
 CYCLE:   268 TIME:   0.055 TIME LEFT:  2.00D  GRAD.:     8.618 HEAT: -318.8951
 CYCLE:   269 TIME:   0.086 TIME LEFT:  2.00D  GRAD.:     5.177 HEAT: -318.9286
 CYCLE:   270 TIME:   0.062 TIME LEFT:  2.00D  GRAD.:     5.889 HEAT: -318.9680
 CYCLE:   271 TIME:   0.055 TIME LEFT:  2.00D  GRAD.:     6.382 HEAT: -318.9911
 CYCLE:   272 TIME:   0.039 TIME LEFT:  2.00D  GRAD.:     7.652 HEAT: -319.0302
 CYCLE:   273 TIME:   0.055 TIME LEFT:  2.00D  GRAD.:     9.864 HEAT: -319.0516
 CYCLE:   274 TIME:   0.039 TIME LEFT:  2.00D  GRAD.:     5.202 HEAT: -319.0764
 CYCLE:   275 TIME:   0.047 TIME LEFT:  2.00D  GRAD.:     4.661 HEAT: -319.0960
 CYCLE:   276 TIME:   0.047 TIME LEFT:  2.00D  GRAD.:     5.349 HEAT: -319.1214
 CYCLE:   277 TIME:   0.039 TIME LEFT:  2.00D  GRAD.:     6.645 HEAT: -319.1607
 CYCLE:   278 TIME:   0.047 TIME LEFT:  2.00D  GRAD.:    12.918 HEAT: -319.1666
 CYCLE:   279 TIME:   0.047 TIME LEFT:  2.00D  GRAD.:     3.601 HEAT: -319.2046
 CYCLE:   280 TIME:   0.047 TIME LEFT:  2.00D  GRAD.:     3.423 HEAT: -319.2161
 CYCLE:   281 TIME:   0.047 TIME LEFT:  2.00D  GRAD.:     4.722 HEAT: -319.2451
 CYCLE:   282 TIME:   0.047 TIME LEFT:  2.00D  GRAD.:    12.166 HEAT: -319.2557
 CYCLE:   283 TIME:   0.047 TIME LEFT:  2.00D  GRAD.:     5.096 HEAT: -319.2869
 CYCLE:   284 TIME:   0.047 TIME LEFT:  2.00D  GRAD.:     3.584 HEAT: -319.3065
 CYCLE:   285 TIME:   0.055 TIME LEFT:  2.00D  GRAD.:     4.470 HEAT: -319.3263
 CYCLE:   286 TIME:   0.047 TIME LEFT:  2.00D  GRAD.:     5.547 HEAT: -319.3583
 CYCLE:   287 TIME:   0.039 TIME LEFT:  2.00D  GRAD.:    14.821 HEAT: -319.3636
 CYCLE:   288 TIME:   0.047 TIME LEFT:  2.00D  GRAD.:     4.049 HEAT: -319.4146
 CYCLE:   289 TIME:   0.039 TIME LEFT:  2.00D  GRAD.:     3.633 HEAT: -319.4284
 CYCLE:   290 TIME:   0.055 TIME LEFT:  2.00D  GRAD.:    10.119 HEAT: -319.4509
 CYCLE:   291 TIME:   0.086 TIME LEFT:  2.00D  GRAD.:     4.880 HEAT: -319.4753
 CYCLE:   292 TIME:   0.055 TIME LEFT:  2.00D  GRAD.:     4.291 HEAT: -319.4898
 CYCLE:   293 TIME:   0.055 TIME LEFT:  2.00D  GRAD.:     4.101 HEAT: -319.5149
 CYCLE:   294 TIME:   0.047 TIME LEFT:  2.00D  GRAD.:    10.823 HEAT: -319.5254
 CYCLE:   295 TIME:   0.039 TIME LEFT:  2.00D  GRAD.:     4.601 HEAT: -319.5487
 CYCLE:   296 TIME:   0.039 TIME LEFT:  2.00D  GRAD.:     3.184 HEAT: -319.5644
 CYCLE:   297 TIME:   0.047 TIME LEFT:  2.00D  GRAD.:     4.263 HEAT: -319.5782
 CYCLE:   298 TIME:   0.039 TIME LEFT:  2.00D  GRAD.:     5.431 HEAT: -319.6075
 CYCLE:   299 TIME:   0.047 TIME LEFT:  2.00D  GRAD.:    10.699 HEAT: -319.6344
 CYCLE:   300 TIME:   0.039 TIME LEFT:  2.00D  GRAD.:     5.728 HEAT: -319.6769
 CYCLE:   301 TIME:   0.047 TIME LEFT:  2.00D  GRAD.:     4.059 HEAT: -319.6971
 CYCLE:   302 TIME:   0.047 TIME LEFT:  2.00D  GRAD.:     5.953 HEAT: -319.7258
 CYCLE:   303 TIME:   0.039 TIME LEFT:  2.00D  GRAD.:     6.444 HEAT: -319.7439
 CYCLE:   304 TIME:   0.047 TIME LEFT:  2.00D  GRAD.:     4.858 HEAT: -319.7626
 CYCLE:   305 TIME:   0.047 TIME LEFT:  2.00D  GRAD.:     5.819 HEAT: -319.7906
 CYCLE:   306 TIME:   0.039 TIME LEFT:  2.00D  GRAD.:     7.566 HEAT: -319.8014
 CYCLE:   307 TIME:   0.047 TIME LEFT:  2.00D  GRAD.:     4.848 HEAT: -319.8133
 CYCLE:   308 TIME:   0.039 TIME LEFT:  2.00D  GRAD.:     4.551 HEAT: -319.8406
 CYCLE:   309 TIME:   0.047 TIME LEFT:  2.00D  GRAD.:     5.110 HEAT: -319.8587
 CYCLE:   310 TIME:   0.047 TIME LEFT:  2.00D  GRAD.:     7.556 HEAT: -319.8890
 CYCLE:   311 TIME:   0.039 TIME LEFT:  2.00D  GRAD.:     7.944 HEAT: -319.9107
 CYCLE:   312 TIME:   0.047 TIME LEFT:  2.00D  GRAD.:     4.222 HEAT: -319.9317
 CYCLE:   313 TIME:   0.047 TIME LEFT:  2.00D  GRAD.:     3.183 HEAT: -319.9415
 CYCLE:   314 TIME:   0.102 TIME LEFT:  2.00D  GRAD.:     3.910 HEAT: -319.9559
 CYCLE:   315 TIME:   0.047 TIME LEFT:  2.00D  GRAD.:     5.734 HEAT: -319.9746
 CYCLE:   316 TIME:   0.039 TIME LEFT:  2.00D  GRAD.:     4.234 HEAT: -319.9927
 CYCLE:   317 TIME:   0.047 TIME LEFT:  2.00D  GRAD.:     3.422 HEAT: -320.0054
 CYCLE:   318 TIME:   0.039 TIME LEFT:  2.00D  GRAD.:     3.733 HEAT: -320.0172
 CYCLE:   319 TIME:   0.062 TIME LEFT:  2.00D  GRAD.:     4.602 HEAT: -320.0314
 CYCLE:   320 TIME:   0.039 TIME LEFT:  2.00D  GRAD.:     5.954 HEAT: -320.0490
 CYCLE:   321 TIME:   0.047 TIME LEFT:  2.00D  GRAD.:     4.078 HEAT: -320.0640
 CYCLE:   322 TIME:   0.039 TIME LEFT:  2.00D  GRAD.:     3.168 HEAT: -320.0757
 CYCLE:   323 TIME:   0.047 TIME LEFT:  2.00D  GRAD.:     3.384 HEAT: -320.0859
 CYCLE:   324 TIME:   0.039 TIME LEFT:  2.00D  GRAD.:     5.574 HEAT: -320.1024
 CYCLE:   325 TIME:   0.047 TIME LEFT:  2.00D  GRAD.:     4.082 HEAT: -320.1165
 CYCLE:   326 TIME:   0.047 TIME LEFT:  2.00D  GRAD.:     2.763 HEAT: -320.1258
 CYCLE:   327 TIME:   0.039 TIME LEFT:  2.00D  GRAD.:     3.228 HEAT: -320.1357
 CYCLE:   328 TIME:   0.047 TIME LEFT:  2.00D  GRAD.:     5.839 HEAT: -320.1456
 CYCLE:   329 TIME:   0.039 TIME LEFT:  2.00D  GRAD.:     3.261 HEAT: -320.1581
 CYCLE:   330 TIME:   0.047 TIME LEFT:  2.00D  GRAD.:     2.824 HEAT: -320.1677
 CYCLE:   331 TIME:   0.039 TIME LEFT:  2.00D  GRAD.:     3.833 HEAT: -320.1767
 CYCLE:   332 TIME:   0.047 TIME LEFT:  2.00D  GRAD.:     3.465 HEAT: -320.1879
 CYCLE:   333 TIME:   0.055 TIME LEFT:  2.00D  GRAD.:     4.217 HEAT: -320.2046
 CYCLE:   334 TIME:   0.047 TIME LEFT:  2.00D  GRAD.:     6.695 HEAT: -320.2115
 CYCLE:   335 TIME:   0.039 TIME LEFT:  2.00D  GRAD.:     2.877 HEAT: -320.2243
 CYCLE:   336 TIME:   0.094 TIME LEFT:  2.00D  GRAD.:     2.725 HEAT: -320.2318
 CYCLE:   337 TIME:   0.062 TIME LEFT:  2.00D  GRAD.:     3.942 HEAT: -320.2452
 CYCLE:   338 TIME:   0.047 TIME LEFT:  2.00D  GRAD.:     9.023 HEAT: -320.2515
 CYCLE:   339 TIME:   0.039 TIME LEFT:  2.00D  GRAD.:     3.347 HEAT: -320.2682
 CYCLE:   340 TIME:   0.062 TIME LEFT:  2.00D  GRAD.:     2.432 HEAT: -320.2759
 CYCLE:   341 TIME:   0.039 TIME LEFT:  2.00D  GRAD.:     2.928 HEAT: -320.2841
 CYCLE:   342 TIME:   0.047 TIME LEFT:  2.00D  GRAD.:     3.356 HEAT: -320.2978
 CYCLE:   343 TIME:   0.039 TIME LEFT:  2.00D  GRAD.:    12.125 HEAT: -320.2942
 CYCLE:   344 TIME:   0.047 TIME LEFT:  2.00D  GRAD.:     3.200 HEAT: -320.3227
 CYCLE:   345 TIME:   0.047 TIME LEFT:  2.00D  GRAD.:     2.485 HEAT: -320.3299
 CYCLE:   346 TIME:   0.039 TIME LEFT:  2.00D  GRAD.:     3.928 HEAT: -320.3425
 CYCLE:   347 TIME:   0.047 TIME LEFT:  2.00D  GRAD.:     7.168 HEAT: -320.3528
 CYCLE:   348 TIME:   0.039 TIME LEFT:  2.00D  GRAD.:     4.073 HEAT: -320.3663
 CYCLE:   349 TIME:   0.039 TIME LEFT:  2.00D  GRAD.:     3.059 HEAT: -320.3842
 CYCLE:   350 TIME:   0.055 TIME LEFT:  2.00D  GRAD.:     3.277 HEAT: -320.3939
 CYCLE:   351 TIME:   0.055 TIME LEFT:  2.00D  GRAD.:     8.892 HEAT: -320.4075
 CYCLE:   352 TIME:   0.039 TIME LEFT:  2.00D  GRAD.:     3.268 HEAT: -320.4277
 CYCLE:   353 TIME:   0.039 TIME LEFT:  2.00D  GRAD.:     2.214 HEAT: -320.4337
 CYCLE:   354 TIME:   0.047 TIME LEFT:  2.00D  GRAD.:     2.769 HEAT: -320.4414
 CYCLE:   355 TIME:   0.047 TIME LEFT:  2.00D  GRAD.:     5.467 HEAT: -320.4459
 CYCLE:   356 TIME:   0.039 TIME LEFT:  2.00D  GRAD.:     2.816 HEAT: -320.4524
 CYCLE:   357 TIME:   0.055 TIME LEFT:  2.00D  GRAD.:     1.934 HEAT: -320.4590
 CYCLE:   358 TIME:   0.102 TIME LEFT:  2.00D  GRAD.:     2.301 HEAT: -320.4630
 CYCLE:   359 TIME:   0.047 TIME LEFT:  2.00D  GRAD.:     3.212 HEAT: -320.4740
 CYCLE:   360 TIME:   0.055 TIME LEFT:  2.00D  GRAD.:    11.321 HEAT: -320.4615
 CYCLE:   361 TIME:   0.055 TIME LEFT:  2.00D  GRAD.:     1.846 HEAT: -320.4839
 CYCLE:   362 TIME:   0.039 TIME LEFT:  2.00D  GRAD.:     1.540 HEAT: -320.4856
 CYCLE:   363 TIME:   0.055 TIME LEFT:  2.00D  GRAD.:     2.174 HEAT: -320.4908
 CYCLE:   364 TIME:   0.039 TIME LEFT:  2.00D  GRAD.:     3.733 HEAT: -320.4964
 CYCLE:   365 TIME:   0.055 TIME LEFT:  2.00D  GRAD.:     2.947 HEAT: -320.5037
 CYCLE:   366 TIME:   0.047 TIME LEFT:  2.00D  GRAD.:     2.554 HEAT: -320.5115
 CYCLE:   367 TIME:   0.039 TIME LEFT:  2.00D  GRAD.:     2.762 HEAT: -320.5169
 CYCLE:   368 TIME:   0.055 TIME LEFT:  2.00D  GRAD.:     2.350 HEAT: -320.5210
 CYCLE:   369 TIME:   0.047 TIME LEFT:  2.00D  GRAD.:     2.172 HEAT: -320.5271
 CYCLE:   370 TIME:   0.047 TIME LEFT:  2.00D  GRAD.:     4.633 HEAT: -320.5330
 CYCLE:   371 TIME:   0.039 TIME LEFT:  2.00D  GRAD.:     2.863 HEAT: -320.5415
 CYCLE:   372 TIME:   0.047 TIME LEFT:  2.00D  GRAD.:     2.583 HEAT: -320.5503
 CYCLE:   373 TIME:   0.055 TIME LEFT:  2.00D  GRAD.:     3.139 HEAT: -320.5589
 CYCLE:   374 TIME:   0.055 TIME LEFT:  2.00D  GRAD.:     5.994 HEAT: -320.5656
 CYCLE:   375 TIME:   0.047 TIME LEFT:  2.00D  GRAD.:     2.727 HEAT: -320.5764
 CYCLE:   376 TIME:   0.039 TIME LEFT:  2.00D  GRAD.:     2.518 HEAT: -320.5838
 CYCLE:   377 TIME:   0.047 TIME LEFT:  2.00D  GRAD.:     3.332 HEAT: -320.5927
 CYCLE:   378 TIME:   0.047 TIME LEFT:  2.00D  GRAD.:     7.750 HEAT: -320.5955
 CYCLE:   379 TIME:   0.039 TIME LEFT:  2.00D  GRAD.:     2.435 HEAT: -320.6060
 CYCLE:   380 TIME:   0.109 TIME LEFT:  2.00D  GRAD.:     2.105 HEAT: -320.6103
 CYCLE:   381 TIME:   0.047 TIME LEFT:  2.00D  GRAD.:     2.528 HEAT: -320.6165
 CYCLE:   382 TIME:   0.047 TIME LEFT:  2.00D  GRAD.:     2.983 HEAT: -320.6259
 CYCLE:   383 TIME:   0.047 TIME LEFT:  2.00D  GRAD.:     4.550 HEAT: -320.6345
 CYCLE:   384 TIME:   0.047 TIME LEFT:  2.00D  GRAD.:     3.669 HEAT: -320.6467
 CYCLE:   385 TIME:   0.039 TIME LEFT:  2.00D  GRAD.:     2.352 HEAT: -320.6529
 CYCLE:   386 TIME:   0.047 TIME LEFT:  2.00D  GRAD.:     2.321 HEAT: -320.6583
 CYCLE:   387 TIME:   0.047 TIME LEFT:  2.00D  GRAD.:     3.027 HEAT: -320.6657
 CYCLE:   388 TIME:   0.039 TIME LEFT:  2.00D  GRAD.:     6.112 HEAT: -320.6707
 CYCLE:   389 TIME:   0.055 TIME LEFT:  2.00D  GRAD.:     2.110 HEAT: -320.6803
 CYCLE:   390 TIME:   0.039 TIME LEFT:  2.00D  GRAD.:     1.888 HEAT: -320.6840
 CYCLE:   391 TIME:   0.039 TIME LEFT:  2.00D  GRAD.:     2.450 HEAT: -320.6890
 CYCLE:   392 TIME:   0.047 TIME LEFT:  2.00D  GRAD.:     3.690 HEAT: -320.6956
 CYCLE:   393 TIME:   0.047 TIME LEFT:  2.00D  GRAD.:     2.335 HEAT: -320.7029
 CYCLE:   394 TIME:   0.047 TIME LEFT:  2.00D  GRAD.:     1.964 HEAT: -320.7071
 CYCLE:   395 TIME:   0.047 TIME LEFT:  2.00D  GRAD.:     1.830 HEAT: -320.7102
 CYCLE:   396 TIME:   0.047 TIME LEFT:  2.00D  GRAD.:     2.326 HEAT: -320.7161
 CYCLE:   397 TIME:   0.047 TIME LEFT:  2.00D  GRAD.:     6.760 HEAT: -320.7162
 CYCLE:   398 TIME:   0.055 TIME LEFT:  2.00D  GRAD.:     2.150 HEAT: -320.7236
 CYCLE:   399 TIME:   0.055 TIME LEFT:  2.00D  GRAD.:     1.625 HEAT: -320.7261
 CYCLE:   400 TIME:   0.039 TIME LEFT:  2.00D  GRAD.:     1.826 HEAT: -320.7300
 CYCLE:   401 TIME:   0.102 TIME LEFT:  2.00D  GRAD.:     2.715 HEAT: -320.7349
 CYCLE:   402 TIME:   0.055 TIME LEFT:  2.00D  GRAD.:     3.669 HEAT: -320.7384
 CYCLE:   403 TIME:   0.039 TIME LEFT:  2.00D  GRAD.:     1.758 HEAT: -320.7429
 CYCLE:   404 TIME:   0.039 TIME LEFT:  2.00D  GRAD.:     1.773 HEAT: -320.7461
 CYCLE:   405 TIME:   0.047 TIME LEFT:  2.00D  GRAD.:     2.249 HEAT: -320.7506
 CYCLE:   406 TIME:   0.039 TIME LEFT:  2.00D  GRAD.:     6.601 HEAT: -320.7506
 CYCLE:   407 TIME:   0.055 TIME LEFT:  2.00D  GRAD.:     1.893 HEAT: -320.7585
 CYCLE:   408 TIME:   0.039 TIME LEFT:  2.00D  GRAD.:     1.292 HEAT: -320.7607
 CYCLE:   409 TIME:   0.047 TIME LEFT:  2.00D  GRAD.:     1.578 HEAT: -320.7637
 CYCLE:   410 TIME:   0.039 TIME LEFT:  2.00D  GRAD.:     2.006 HEAT: -320.7681
 CYCLE:   411 TIME:   0.047 TIME LEFT:  2.00D  GRAD.:     4.319 HEAT: -320.7715
 CYCLE:   412 TIME:   0.047 TIME LEFT:  2.00D  GRAD.:     1.937 HEAT: -320.7778
 CYCLE:   413 TIME:   0.039 TIME LEFT:  2.00D  GRAD.:     1.587 HEAT: -320.7806
 CYCLE:   414 TIME:   0.055 TIME LEFT:  2.00D  GRAD.:     2.749 HEAT: -320.7851
 CYCLE:   415 TIME:   0.055 TIME LEFT:  2.00D  GRAD.:     4.074 HEAT: -320.7888
 CYCLE:   416 TIME:   0.039 TIME LEFT:  2.00D  GRAD.:     2.572 HEAT: -320.7931
 CYCLE:   417 TIME:   0.047 TIME LEFT:  2.00D  GRAD.:     1.890 HEAT: -320.8001
 CYCLE:   418 TIME:   0.047 TIME LEFT:  2.00D  GRAD.:     2.409 HEAT: -320.8050
 CYCLE:   419 TIME:   0.047 TIME LEFT:  2.00D  GRAD.:     3.575 HEAT: -320.8144
 CYCLE:   420 TIME:   0.039 TIME LEFT:  2.00D  GRAD.:     3.185 HEAT: -320.8249
 CYCLE:   421 TIME:   0.047 TIME LEFT:  2.00D  GRAD.:     4.828 HEAT: -320.8319
 CYCLE:   422 TIME:   0.039 TIME LEFT:  2.00D  GRAD.:     3.487 HEAT: -320.8441
 CYCLE:   423 TIME:   0.055 TIME LEFT:  2.00D  GRAD.:     3.471 HEAT: -320.8517
 CYCLE:   424 TIME:   0.109 TIME LEFT:  2.00D  GRAD.:     2.402 HEAT: -320.8574
 CYCLE:   425 TIME:   0.047 TIME LEFT:  2.00D  GRAD.:     2.016 HEAT: -320.8626
 CYCLE:   426 TIME:   0.047 TIME LEFT:  2.00D  GRAD.:     2.288 HEAT: -320.8675
 CYCLE:   427 TIME:   0.039 TIME LEFT:  2.00D  GRAD.:     3.871 HEAT: -320.8718
 CYCLE:   428 TIME:   0.039 TIME LEFT:  2.00D  GRAD.:     2.004 HEAT: -320.8767
 CYCLE:   429 TIME:   0.047 TIME LEFT:  2.00D  GRAD.:     1.956 HEAT: -320.8800
 CYCLE:   430 TIME:   0.047 TIME LEFT:  2.00D  GRAD.:     1.931 HEAT: -320.8831
 CYCLE:   431 TIME:   0.039 TIME LEFT:  2.00D  GRAD.:     4.639 HEAT: -320.8869
 CYCLE:   432 TIME:   0.047 TIME LEFT:  2.00D  GRAD.:     1.926 HEAT: -320.8924
 CYCLE:   433 TIME:   0.039 TIME LEFT:  2.00D  GRAD.:     1.826 HEAT: -320.8960
 CYCLE:   434 TIME:   0.047 TIME LEFT:  2.00D  GRAD.:     2.036 HEAT: -320.8996
 CYCLE:   435 TIME:   0.039 TIME LEFT:  2.00D  GRAD.:     4.816 HEAT: -320.9033
 CYCLE:   436 TIME:   0.047 TIME LEFT:  2.00D  GRAD.:     1.973 HEAT: -320.9094
 CYCLE:   437 TIME:   0.039 TIME LEFT:  2.00D  GRAD.:     1.516 HEAT: -320.9128
 CYCLE:   438 TIME:   0.047 TIME LEFT:  2.00D  GRAD.:     1.989 HEAT: -320.9159
 CYCLE:   439 TIME:   0.047 TIME LEFT:  2.00D  GRAD.:     4.002 HEAT: -320.9186
 CYCLE:   440 TIME:   0.039 TIME LEFT:  2.00D  GRAD.:     1.809 HEAT: -320.9223
 CYCLE:   441 TIME:   0.055 TIME LEFT:  2.00D  GRAD.:     1.305 HEAT: -320.9246
 CYCLE:   442 TIME:   0.055 TIME LEFT:  2.00D  GRAD.:     1.622 HEAT: -320.9265
 CYCLE:   443 TIME:   0.047 TIME LEFT:  2.00D  GRAD.:     2.070 HEAT: -320.9293
 CYCLE:   444 TIME:   0.055 TIME LEFT:  2.00D  GRAD.:     2.455 HEAT: -320.9307
 CYCLE:   445 TIME:   0.086 TIME LEFT:  2.00D  GRAD.:     0.934 HEAT: -320.9324
 CYCLE:   446 TIME:   0.062 TIME LEFT:  2.00D  GRAD.:     1.029 HEAT: -320.9331
 CYCLE:   447 TIME:   0.047 TIME LEFT:  2.00D  GRAD.:     1.514 HEAT: -320.9343
 CYCLE:   448 TIME:   0.047 TIME LEFT:  2.00D  GRAD.:     2.044 HEAT: -320.9360
 CYCLE:   449 TIME:   0.047 TIME LEFT:  2.00D  GRAD.:     1.519 HEAT: -320.9379
 CYCLE:   450 TIME:   0.055 TIME LEFT:  2.00D  GRAD.:     1.105 HEAT: -320.9393
 CYCLE:   451 TIME:   0.047 TIME LEFT:  2.00D  GRAD.:     1.368 HEAT: -320.9413
 CYCLE:   452 TIME:   0.047 TIME LEFT:  2.00D  GRAD.:     2.086 HEAT: -320.9427
 CYCLE:   453 TIME:   0.039 TIME LEFT:  2.00D  GRAD.:     1.333 HEAT: -320.9444
 CYCLE:   454 TIME:   0.047 TIME LEFT:  2.00D  GRAD.:     1.074 HEAT: -320.9463
 CYCLE:   455 TIME:   0.039 TIME LEFT:  2.00D  GRAD.:     1.625 HEAT: -320.9475
 CYCLE:   456 TIME:   0.047 TIME LEFT:  2.00D  GRAD.:     1.481 HEAT: -320.9492
 CYCLE:   457 TIME:   0.047 TIME LEFT:  2.00D  GRAD.:     2.623 HEAT: -320.9511
 CYCLE:   458 TIME:   0.047 TIME LEFT:  2.00D  GRAD.:     1.176 HEAT: -320.9533
 CYCLE:   459 TIME:   0.047 TIME LEFT:  2.00D  GRAD.:     1.078 HEAT: -320.9544
 CYCLE:   460 TIME:   0.055 TIME LEFT:  2.00D  GRAD.:     1.659 HEAT: -320.9566
 CYCLE:   461 TIME:   0.055 TIME LEFT:  2.00D  GRAD.:     2.710 HEAT: -320.9579
 CYCLE:   462 TIME:   0.039 TIME LEFT:  2.00D  GRAD.:     1.270 HEAT: -320.9600
 CYCLE:   463 TIME:   0.047 TIME LEFT:  2.00D  GRAD.:     1.069 HEAT: -320.9617
 CYCLE:   464 TIME:   0.039 TIME LEFT:  2.00D  GRAD.:     1.158 HEAT: -320.9630
 CYCLE:   465 TIME:   0.047 TIME LEFT:  2.00D  GRAD.:     5.714 HEAT: -320.9609
 CYCLE:   466 TIME:   0.047 TIME LEFT:  2.00D  GRAD.:     1.157 HEAT: -320.9654
 CYCLE:   467 TIME:   0.094 TIME LEFT:  2.00D  GRAD.:     0.813 HEAT: -320.9660
 CYCLE:   468 TIME:   0.047 TIME LEFT:  2.00D  GRAD.:     0.987 HEAT: -320.9672
 CYCLE:   469 TIME:   0.047 TIME LEFT:  2.00D  GRAD.:     1.061 HEAT: -320.9684
 CYCLE:   470 TIME:   0.055 TIME LEFT:  2.00D  GRAD.:     4.039 HEAT: -320.9678
 CYCLE:   471 TIME:   0.039 TIME LEFT:  2.00D  GRAD.:     0.921 HEAT: -320.9708
 CYCLE:   472 TIME:   0.047 TIME LEFT:  2.00D  GRAD.:     0.728 HEAT: -320.9713
 CYCLE:   473 TIME:   0.039 TIME LEFT:  2.00D  GRAD.:     0.969 HEAT: -320.9725
 CYCLE:   474 TIME:   0.039 TIME LEFT:  2.00D  GRAD.:     2.349 HEAT: -320.9730
 CYCLE:   475 TIME:   0.055 TIME LEFT:  2.00D  GRAD.:     0.953 HEAT: -320.9740
 CYCLE:   476 TIME:   0.039 TIME LEFT:  2.00D  GRAD.:     0.635 HEAT: -320.9745
 CYCLE:   477 TIME:   0.047 TIME LEFT:  2.00D  GRAD.:     0.810 HEAT: -320.9750
 CYCLE:   478 TIME:   0.039 TIME LEFT:  2.00D  GRAD.:     1.018 HEAT: -320.9760
 CYCLE:   479 TIME:   0.086 TIME LEFT:  2.00D  GRAD.:     2.337 HEAT: -320.9767
 CYCLE:   480 TIME:   0.055 TIME LEFT:  2.00D  GRAD.:     0.905 HEAT: -320.9781
 CYCLE:   481 TIME:   0.047 TIME LEFT:  2.00D  GRAD.:     0.759 HEAT: -320.9788
 CYCLE:   482 TIME:   0.047 TIME LEFT:  2.00D  GRAD.:     1.175 HEAT: -320.9798
 CYCLE:   483 TIME:   0.047 TIME LEFT:  2.00D  GRAD.:     1.567 HEAT: -320.9806
 CYCLE:   484 TIME:   0.047 TIME LEFT:  2.00D  GRAD.:     0.968 HEAT: -320.9816
 CYCLE:   485 TIME:   0.047 TIME LEFT:  2.00D  GRAD.:     0.827 HEAT: -320.9828
 CYCLE:   486 TIME:   0.047 TIME LEFT:  2.00D  GRAD.:     1.158 HEAT: -320.9836
 CYCLE:   487 TIME:   0.039 TIME LEFT:  2.00D  GRAD.:     0.816 HEAT: -320.9845
 CYCLE:   488 TIME:   0.078 TIME LEFT:  2.00D  GRAD.:     0.653 HEAT: -320.9851
 CYCLE:   489 TIME:   0.078 TIME LEFT:  2.00D  GRAD.:     0.847 HEAT: -320.9858
 CYCLE:   490 TIME:   0.039 TIME LEFT:  2.00D  GRAD.:     1.171 HEAT: -320.9863
 CYCLE:   491 TIME:   0.047 TIME LEFT:  2.00D  GRAD.:     0.754 HEAT: -320.9868
 CYCLE:   492 TIME:   0.047 TIME LEFT:  2.00D  GRAD.:     0.689 HEAT: -320.9875
 CYCLE:   493 TIME:   0.047 TIME LEFT:  2.00D  GRAD.:     0.796 HEAT: -320.9880
 CYCLE:   494 TIME:   0.047 TIME LEFT:  2.00D  GRAD.:     1.396 HEAT: -320.9889
 CYCLE:   495 TIME:   0.047 TIME LEFT:  2.00D  GRAD.:     1.068 HEAT: -320.9895
 CYCLE:   496 TIME:   0.039 TIME LEFT:  2.00D  GRAD.:     0.598 HEAT: -320.9899
 CYCLE:   497 TIME:   0.055 TIME LEFT:  2.00D  GRAD.:     0.532 HEAT: -320.9902
 CYCLE:   498 TIME:   0.047 TIME LEFT:  2.00D  GRAD.:     0.863 HEAT: -320.9905
 CYCLE:   499 TIME:   0.047 TIME LEFT:  2.00D  GRAD.:     0.579 HEAT: -320.9909
 CYCLE:   500 TIME:   0.039 TIME LEFT:  2.00D  GRAD.:     0.453 HEAT: -320.9911
 CYCLE:   501 TIME:   0.055 TIME LEFT:  2.00D  GRAD.:     0.540 HEAT: -320.9915
 CYCLE:   502 TIME:   0.047 TIME LEFT:  2.00D  GRAD.:     1.002 HEAT: -320.9918
 CYCLE:   503 TIME:   0.047 TIME LEFT:  2.00D  GRAD.:     0.553 HEAT: -320.9922
 CYCLE:   504 TIME:   0.039 TIME LEFT:  2.00D  GRAD.:     0.451 HEAT: -320.9925
 CYCLE:   505 TIME:   0.039 TIME LEFT:  2.00D  GRAD.:     0.663 HEAT: -320.9927
 CYCLE:   506 TIME:   0.047 TIME LEFT:  2.00D  GRAD.:     0.614 HEAT: -320.9930
 CYCLE:   507 TIME:   0.047 TIME LEFT:  2.00D  GRAD.:     0.558 HEAT: -320.9933
 CYCLE:   508 TIME:   0.047 TIME LEFT:  2.00D  GRAD.:     1.183 HEAT: -320.9936
 CYCLE:   509 TIME:   0.039 TIME LEFT:  2.00D  GRAD.:     0.527 HEAT: -320.9940
 CYCLE:   510 TIME:   0.094 TIME LEFT:  2.00D  GRAD.:     0.491 HEAT: -320.9942
 CYCLE:   511 TIME:   0.047 TIME LEFT:  2.00D  GRAD.:     0.634 HEAT: -320.9947
 CYCLE:   512 TIME:   0.047 TIME LEFT:  2.00D  GRAD.:     1.316 HEAT: -320.9950
 CYCLE:   513 TIME:   0.039 TIME LEFT:  2.00D  GRAD.:     0.707 HEAT: -320.9954
 CYCLE:   514 TIME:   0.047 TIME LEFT:  2.00D  GRAD.:     0.502 HEAT: -320.9959
 CYCLE:   515 TIME:   0.047 TIME LEFT:  2.00D  GRAD.:     0.732 HEAT: -320.9962
 CYCLE:   516 TIME:   0.047 TIME LEFT:  2.00D  GRAD.:     0.964 HEAT: -320.9965
 CYCLE:   517 TIME:   0.055 TIME LEFT:  2.00D  GRAD.:     0.540 HEAT: -320.9968
 CYCLE:   518 TIME:   0.039 TIME LEFT:  2.00D  GRAD.:     0.503 HEAT: -320.9972
 CYCLE:   519 TIME:   0.047 TIME LEFT:  2.00D  GRAD.:     0.567 HEAT: -320.9975
 CYCLE:   520 TIME:   0.062 TIME LEFT:  2.00D  GRAD.:     1.627 HEAT: -320.9977
 CYCLE:   521 TIME:   0.039 TIME LEFT:  2.00D  GRAD.:     0.500 HEAT: -320.9982
 CYCLE:   522 TIME:   0.055 TIME LEFT:  2.00D  GRAD.:     0.396 HEAT: -320.9984
 CYCLE:   523 TIME:   0.039 TIME LEFT:  2.00D  GRAD.:     0.477 HEAT: -320.9987
 CYCLE:   524 TIME:   0.047 TIME LEFT:  2.00D  GRAD.:     1.269 HEAT: -320.9989
 CYCLE:   525 TIME:   0.039 TIME LEFT:  2.00D  GRAD.:     0.538 HEAT: -320.9992
 CYCLE:   526 TIME:   0.047 TIME LEFT:  2.00D  GRAD.:     0.392 HEAT: -320.9994
 CYCLE:   527 TIME:   0.039 TIME LEFT:  2.00D  GRAD.:     0.515 HEAT: -320.9997
 CYCLE:   528 TIME:   0.039 TIME LEFT:  2.00D  GRAD.:     0.617 HEAT: -321.0000
 CYCLE:   529 TIME:   0.047 TIME LEFT:  2.00D  GRAD.:     1.509 HEAT: -321.0001
 CYCLE:   530 TIME:   0.047 TIME LEFT:  2.00D  GRAD.:     0.455 HEAT: -321.0006
 CYCLE:   531 TIME:   0.047 TIME LEFT:  2.00D  GRAD.:     0.404 HEAT: -321.0008
 CYCLE:   532 TIME:   0.109 TIME LEFT:  2.00D  GRAD.:     0.488 HEAT: -321.0011
 CYCLE:   533 TIME:   0.047 TIME LEFT:  2.00D  GRAD.:     0.656 HEAT: -321.0016
 CYCLE:   534 TIME:   0.055 TIME LEFT:  2.00D  GRAD.:     1.352 HEAT: -321.0017
 CYCLE:   535 TIME:   0.047 TIME LEFT:  2.00D  GRAD.:     0.550 HEAT: -321.0022
 CYCLE:   536 TIME:   0.039 TIME LEFT:  2.00D  GRAD.:     0.495 HEAT: -321.0025
 CYCLE:   537 TIME:   0.047 TIME LEFT:  2.00D  GRAD.:     0.784 HEAT: -321.0029
 CYCLE:   538 TIME:   0.047 TIME LEFT:  2.00D  GRAD.:     1.301 HEAT: -321.0031
 CYCLE:   539 TIME:   0.047 TIME LEFT:  2.00D  GRAD.:     0.566 HEAT: -321.0034
 CYCLE:   540 TIME:   0.047 TIME LEFT:  2.00D  GRAD.:     0.442 HEAT: -321.0037
 CYCLE:   541 TIME:   0.047 TIME LEFT:  2.00D  GRAD.:     0.550 HEAT: -321.0039
 CYCLE:   542 TIME:   0.055 TIME LEFT:  2.00D  GRAD.:     0.849 HEAT: -321.0043
 CYCLE:   543 TIME:   0.047 TIME LEFT:  2.00D  GRAD.:     1.045 HEAT: -321.0045
 CYCLE:   544 TIME:   0.039 TIME LEFT:  2.00D  GRAD.:     0.406 HEAT: -321.0048
 CYCLE:   545 TIME:   0.039 TIME LEFT:  2.00D  GRAD.:     0.373 HEAT: -321.0049
 CYCLE:   546 TIME:   0.047 TIME LEFT:  2.00D  GRAD.:     0.582 HEAT: -321.0052
 CYCLE:   547 TIME:   0.047 TIME LEFT:  2.00D  GRAD.:     0.779 HEAT: -321.0054
 CYCLE:   548 TIME:   0.047 TIME LEFT:  2.00D  GRAD.:     0.412 HEAT: -321.0056
 CYCLE:   549 TIME:   0.039 TIME LEFT:  2.00D  GRAD.:     0.323 HEAT: -321.0058
 CYCLE:   550 TIME:   0.047 TIME LEFT:  2.00D  GRAD.:     0.416 HEAT: -321.0059
 CYCLE:   551 TIME:   0.047 TIME LEFT:  2.00D  GRAD.:     0.562 HEAT: -321.0061
 CYCLE:   552 TIME:   0.047 TIME LEFT:  2.00D  GRAD.:     0.642 HEAT: -321.0063
 CYCLE:   553 TIME:   0.047 TIME LEFT:  2.00D  GRAD.:     0.396 HEAT: -321.0064
 CYCLE:   554 TIME:   0.094 TIME LEFT:  2.00D  GRAD.:     0.363 HEAT: -321.0066
 CYCLE:   555 TIME:   0.055 TIME LEFT:  2.00D  GRAD.:     0.386 HEAT: -321.0067
 CYCLE:   556 TIME:   0.047 TIME LEFT:  2.00D  GRAD.:     0.684 HEAT: -321.0069
 CYCLE:   557 TIME:   0.039 TIME LEFT:  2.00D  GRAD.:     0.453 HEAT: -321.0072
 CYCLE:   558 TIME:   0.039 TIME LEFT:  2.00D  GRAD.:     0.425 HEAT: -321.0074
 CYCLE:   559 TIME:   0.047 TIME LEFT:  2.00D  GRAD.:     0.470 HEAT: -321.0075
 CYCLE:   560 TIME:   0.047 TIME LEFT:  2.00D  GRAD.:     0.672 HEAT: -321.0077
 CYCLE:   561 TIME:   0.039 TIME LEFT:  2.00D  GRAD.:     0.471 HEAT: -321.0079
 CYCLE:   562 TIME:   0.047 TIME LEFT:  2.00D  GRAD.:     0.323 HEAT: -321.0080
 CYCLE:   563 TIME:   0.047 TIME LEFT:  2.00D  GRAD.:     0.324 HEAT: -321.0082
 CYCLE:   564 TIME:   0.047 TIME LEFT:  2.00D  GRAD.:     0.486 HEAT: -321.0083
 CYCLE:   565 TIME:   0.039 TIME LEFT:  2.00D  GRAD.:     0.289 HEAT: -321.0084
 CYCLE:   566 TIME:   0.039 TIME LEFT:  2.00D  GRAD.:     0.263 HEAT: -321.0085
 CYCLE:   567 TIME:   0.047 TIME LEFT:  2.00D  GRAD.:     0.335 HEAT: -321.0086
 CYCLE:   568 TIME:   0.047 TIME LEFT:  2.00D  GRAD.:     0.553 HEAT: -321.0087
 CYCLE:   569 TIME:   0.055 TIME LEFT:  2.00D  GRAD.:     0.313 HEAT: -321.0088
 CYCLE:   570 TIME:   0.039 TIME LEFT:  2.00D  GRAD.:     0.301 HEAT: -321.0089
 CYCLE:   571 TIME:   0.039 TIME LEFT:  2.00D  GRAD.:     0.516 HEAT: -321.0090
 CYCLE:   572 TIME:   0.055 TIME LEFT:  2.00D  GRAD.:     0.389 HEAT: -321.0091
 CYCLE:   573 TIME:   0.055 TIME LEFT:  2.00D  GRAD.:     0.341 HEAT: -321.0093
 CYCLE:   574 TIME:   0.039 TIME LEFT:  2.00D  GRAD.:     0.524 HEAT: -321.0095
 CYCLE:   575 TIME:   0.039 TIME LEFT:  2.00D  GRAD.:     0.399 HEAT: -321.0096
 CYCLE:   576 TIME:   0.047 TIME LEFT:  2.00D  GRAD.:     0.302 HEAT: -321.0098
 CYCLE:   577 TIME:   0.109 TIME LEFT:  2.00D  GRAD.:     0.351 HEAT: -321.0099
 CYCLE:   578 TIME:   0.039 TIME LEFT:  2.00D  GRAD.:     0.359 HEAT: -321.0100
 CYCLE:   579 TIME:   0.047 TIME LEFT:  2.00D  GRAD.:     0.371 HEAT: -321.0101
 CYCLE:   580 TIME:   0.055 TIME LEFT:  2.00D  GRAD.:     0.510 HEAT: -321.0103
 CYCLE:   581 TIME:   0.047 TIME LEFT:  2.00D  GRAD.:     0.397 HEAT: -321.0104
 CYCLE:   582 TIME:   0.039 TIME LEFT:  2.00D  GRAD.:     0.313 HEAT: -321.0104
 CYCLE:   583 TIME:   0.055 TIME LEFT:  2.00D  GRAD.:     0.359 HEAT: -321.0106
 CYCLE:   584 TIME:   0.039 TIME LEFT:  2.00D  GRAD.:     0.580 HEAT: -321.0107
 CYCLE:   585 TIME:   0.055 TIME LEFT:  2.00D  GRAD.:     0.400 HEAT: -321.0109
 CYCLE:   586 TIME:   0.047 TIME LEFT:  2.00D  GRAD.:     0.384 HEAT: -321.0111
 CYCLE:   587 TIME:   0.047 TIME LEFT:  2.00D  GRAD.:     0.582 HEAT: -321.0112
 CYCLE:   588 TIME:   0.039 TIME LEFT:  2.00D  GRAD.:     0.390 HEAT: -321.0113
 CYCLE:   589 TIME:   0.055 TIME LEFT:  2.00D  GRAD.:     0.333 HEAT: -321.0115
 CYCLE:   590 TIME:   0.047 TIME LEFT:  2.00D  GRAD.:     0.445 HEAT: -321.0116
 CYCLE:   591 TIME:   0.039 TIME LEFT:  2.00D  GRAD.:     0.405 HEAT: -321.0118
 CYCLE:   592 TIME:   0.047 TIME LEFT:  2.00D  GRAD.:     0.623 HEAT: -321.0120
 CYCLE:   593 TIME:   0.039 TIME LEFT:  2.00D  GRAD.:     0.356 HEAT: -321.0121
 CYCLE:   594 TIME:   0.039 TIME LEFT:  2.00D  GRAD.:     0.345 HEAT: -321.0123
 CYCLE:   595 TIME:   0.062 TIME LEFT:  2.00D  GRAD.:     0.433 HEAT: -321.0125
 CYCLE:   596 TIME:   0.039 TIME LEFT:  2.00D  GRAD.:     0.720 HEAT: -321.0126
 CYCLE:   597 TIME:   0.039 TIME LEFT:  2.00D  GRAD.:     0.353 HEAT: -321.0128
 CYCLE:   598 TIME:   0.102 TIME LEFT:  2.00D  GRAD.:     0.326 HEAT: -321.0129
 CYCLE:   599 TIME:   0.047 TIME LEFT:  2.00D  GRAD.:     0.392 HEAT: -321.0130
 CYCLE:   600 TIME:   0.039 TIME LEFT:  2.00D  GRAD.:     0.512 HEAT: -321.0132
 CYCLE:   601 TIME:   0.047 TIME LEFT:  2.00D  GRAD.:     0.423 HEAT: -321.0134
 CYCLE:   602 TIME:   0.039 TIME LEFT:  2.00D  GRAD.:     0.415 HEAT: -321.0135
 CYCLE:   603 TIME:   0.055 TIME LEFT:  2.00D  GRAD.:     0.593 HEAT: -321.0137
 CYCLE:   604 TIME:   0.055 TIME LEFT:  2.00D  GRAD.:     0.513 HEAT: -321.0139
 CYCLE:   605 TIME:   0.039 TIME LEFT:  2.00D  GRAD.:     0.353 HEAT: -321.0140
 CYCLE:   606 TIME:   0.055 TIME LEFT:  2.00D  GRAD.:     0.353 HEAT: -321.0142
 CYCLE:   607 TIME:   0.039 TIME LEFT:  2.00D  GRAD.:     0.482 HEAT: -321.0143
 CYCLE:   608 TIME:   0.047 TIME LEFT:  2.00D  GRAD.:     0.327 HEAT: -321.0144
 CYCLE:   609 TIME:   0.039 TIME LEFT:  2.00D  GRAD.:     0.351 HEAT: -321.0145
 CYCLE:   610 TIME:   0.047 TIME LEFT:  2.00D  GRAD.:     0.279 HEAT: -321.0146
 CYCLE:   611 TIME:   0.039 TIME LEFT:  2.00D  GRAD.:     0.246 HEAT: -321.0146
 CYCLE:   612 TIME:   0.055 TIME LEFT:  2.00D  GRAD.:     0.356 HEAT: -321.0148
 CYCLE:   613 TIME:   0.039 TIME LEFT:  2.00D  GRAD.:     0.613 HEAT: -321.0148
 CYCLE:   614 TIME:   0.039 TIME LEFT:  2.00D  GRAD.:     0.292 HEAT: -321.0149
 CYCLE:   615 TIME:   0.039 TIME LEFT:  2.00D  GRAD.:     0.205 HEAT: -321.0150
 CYCLE:   616 TIME:   0.047 TIME LEFT:  2.00D  GRAD.:     0.277 HEAT: -321.0150
 CYCLE:   617 TIME:   0.039 TIME LEFT:  2.00D  GRAD.:     0.596 HEAT: -321.0151
 CYCLE:   618 TIME:   0.047 TIME LEFT:  2.00D  GRAD.:     0.237 HEAT: -321.0152
 CYCLE:   619 TIME:   0.039 TIME LEFT:  2.00D  GRAD.:     0.172 HEAT: -321.0152

 -------------------------------------------------------------------------------
 AUX LARGE CHARGE=0 SINGLET  PM6  OPT PRECISE PRTXYZ
 CN289.pdb
 50


     HERBERTS TEST WAS SATISFIED IN BFGS                      
     SCF FIELD WAS ACHIEVED                                   


                              PM6 CALCULATION
                                                       MOPAC2016 (Version: 20.225L)
                                                       Fri Aug 14 20:42:58 2020
                                                       No. of days remaining = 364




          FINAL HEAT OF FORMATION =       -321.01521 KCAL/MOL =   -1343.12764 KJ/MOL


          TOTAL ENERGY            =      -5466.29000 EV
          ELECTRONIC ENERGY       =     -42610.18640 EV  POINT GROUP:     C1  
          CORE-CORE REPULSION     =      37143.89640 EV
          COSMO AREA              =        394.21 SQUARE ANGSTROMS
          COSMO VOLUME            =        460.60 CUBIC ANGSTROMS

          GRADIENT NORM           =          0.17232 = 0.02437 PER ATOM
          IONIZATION POTENTIAL    =          8.849116 EV
          HOMO LUMO ENERGIES (EV) =         -8.849 -0.895
          NO. OF FILLED LEVELS    =         79
          MOLECULAR WEIGHT        =        416.3836

          MOLECULAR DIMENSIONS (Angstroms)

            Atom       Atom       Distance
            H    50    H    43    17.21498
            H    49    H    44     7.12403
            H    33    H    34     5.34131


          SCF CALCULATIONS        =        620
 
          WALL-CLOCK TIME         =         30.109 SECONDS
          COMPUTATION TIME        =         56.281 SECONDS




   ATOM   CHEMICAL          X               Y               Z
  NUMBER   SYMBOL      (ANGSTROMS)     (ANGSTROMS)     (ANGSTROMS)
 
     1       C          7.86451747  * -11.08937072  *  -1.97938174  *
     2       C          7.62479489  * -11.93644999  *  -0.87670592  *
     3       C          8.50371833  * -12.02019702  *   0.21108917  *
     4       C          9.65255783  * -11.22590329  *   0.14925766  *
     5       C          9.94100628  * -10.37337862  *  -0.92930952  *
     6       C          9.02065194  * -10.32255190  *  -1.99738165  *
     7       O         10.49830660  * -11.33624706  *   1.24425303  *
     8       C         11.67741841  * -10.61202758  *   1.22298156  *
     9       C         12.05901432  *  -9.78175642  *   0.23037641  *
    10       C         11.16365065  *  -9.54461569  *  -0.93984314  *
    11       O         11.39470303  *  -8.73578415  *  -1.81518148  *
    12       C         13.35774224  *  -9.09370711  *   0.28361031  *
    13       C         14.50803779  *  -9.78545796  *   0.69574781  *
    14       C         15.74273190  *  -9.13670494  *   0.77099054  *
    15       C         15.80431983  *  -7.78295235  *   0.41562782  *
    16       C         14.67295620  *  -7.06859691  *  -0.01765763  *
    17       C         13.45587056  *  -7.73484906  *  -0.08617508  *
    18       O          6.51465971  * -12.73174991  *  -0.73815534  *
    19       O          4.96525813  * -11.69874213  *  -2.14266152  *
    20       C          5.59942008  * -12.91870526  *  -1.85658043  *
    21       C          3.33920082  * -12.18427916  *  -0.30720001  *
    22       C          4.04770259  * -11.12950754  *  -1.18200519  *
    23       O          1.97268146  * -11.78737988  *  -0.12965071  *
    24       O          2.72980499  * -14.53445427  *  -0.13567153  *
    25       O          4.65015942  * -14.96126084  *  -2.44868060  *
    26       C          4.82648880  * -10.10712437  *  -0.33468329  *
    27       C          4.68286608  * -14.05155496  *  -1.34403496  *
    28       C          3.26126447  * -13.54592439  *  -1.02540326  *
    29       O          3.87542487  *  -9.31967898  *   0.39065602  *
    30       O         16.97062978  *  -7.05791096  *   0.46320439  *
    31       H          7.14575302  * -11.02583685  *  -2.79585656  *
    32       H          8.30616063  * -12.67721262  *   1.05493245  *
    33       H          9.23969570  *  -9.65587226  *  -2.84043526  *
    34       H         12.20342032  * -10.85027785  *   2.14602775  *
    35       H         14.44973518  * -10.84344146  *   0.95020123  *
    36       H         16.62883028  *  -9.67467685  *   1.08967969  *
    37       H         14.77049781  *  -6.02147254  *  -0.29754777  *
    38       H         12.56617451  *  -7.20936202  *  -0.44666187  *
    39       H          6.14182239  * -13.16496317  *  -2.79786397  *
    40       H          3.81439169  * -12.29169751  *   0.69609679  *
    41       H          3.30850244  * -10.62491333  *  -1.85271712  *
    42       H          1.94187800  * -10.97917733  *   0.44241905  *
    43       H          1.85718047  * -14.22584263  *   0.21425349  *
    44       H          4.11930593  * -15.75784072  *  -2.20339465  *
    45       H          5.44002391  * -10.58628377  *   0.45452664  *
    46       H          5.48095109  *  -9.47645866  *  -0.96109599  *
    47       H          5.12536602  * -14.56569649  *  -0.45278619  *
    48       H          2.61908431  * -13.49546497  *  -1.93469445  *
    49       H          3.55134142  *  -8.57763899  *  -0.16159348  *
    50       H         17.73932542  *  -7.60604653  *   0.75407850  *

                             CARTESIAN COORDINATES

   1    C        7.864517474   -11.089370722    -1.979381736
   2    C        7.624794889   -11.936449988    -0.876705921
   3    C        8.503718332   -12.020197018     0.211089170
   4    C        9.652557828   -11.225903291     0.149257662
   5    C        9.941006285   -10.373378623    -0.929309524
   6    C        9.020651941   -10.322551903    -1.997381649
   7    O       10.498306602   -11.336247061     1.244253031
   8    C       11.677418406   -10.612027582     1.222981559
   9    C       12.059014324    -9.781756423     0.230376413
  10    C       11.163650652    -9.544615695    -0.939843135
  11    O       11.394703026    -8.735784153    -1.815181479
  12    C       13.357742244    -9.093707109     0.283610305
  13    C       14.508037790    -9.785457956     0.695747805
  14    C       15.742731898    -9.136704942     0.770990541
  15    C       15.804319826    -7.782952355     0.415627823
  16    C       14.672956196    -7.068596907    -0.017657634
  17    C       13.455870558    -7.734849060    -0.086175084
  18    O        6.514659714   -12.731749911    -0.738155338
  19    O        4.965258126   -11.698742131    -2.142661523
  20    C        5.599420083   -12.918705258    -1.856580428
  21    C        3.339200825   -12.184279159    -0.307200012
  22    C        4.047702586   -11.129507536    -1.182005191
  23    O        1.972681463   -11.787379879    -0.129650711
  24    O        2.729804987   -14.534454266    -0.135671529
  25    O        4.650159420   -14.961260836    -2.448680597
  26    C        4.826488802   -10.107124371    -0.334683292
  27    C        4.682866076   -14.051554955    -1.344034963
  28    C        3.261264467   -13.545924395    -1.025403257
  29    O        3.875424875    -9.319678980     0.390656020
  30    O       16.970629776    -7.057910959     0.463204386
  31    H        7.145753020   -11.025836849    -2.795856556
  32    H        8.306160632   -12.677212621     1.054932455
  33    H        9.239695701    -9.655872263    -2.840435260
  34    H       12.203420321   -10.850277853     2.146027746
  35    H       14.449735183   -10.843441456     0.950201234
  36    H       16.628830283    -9.674676854     1.089679692
  37    H       14.770497812    -6.021472541    -0.297547772
  38    H       12.566174506    -7.209362025    -0.446661867
  39    H        6.141822387   -13.164963169    -2.797863974
  40    H        3.814391693   -12.291697512     0.696096791
  41    H        3.308502445   -10.624913331    -1.852717120
  42    H        1.941878001   -10.979177333     0.442419047
  43    H        1.857180471   -14.225842633     0.214253488
  44    H        4.119305935   -15.757840722    -2.203394652
  45    H        5.440023906   -10.586283768     0.454526640
  46    H        5.480951095    -9.476458665    -0.961095991
  47    H        5.125366015   -14.565696490    -0.452786194
  48    H        2.619084308   -13.495464975    -1.934694451
  49    H        3.551341419    -8.577638995    -0.161593477
  50    H       17.739325425    -7.606046534     0.754078503


           Empirical Formula: C21 H20 O9  =    50 atoms



      MOLECULAR POINT GROUP   :   C1  


                  EIGENVALUES  
 -32.37098 -31.98727 -31.75602 -31.33698 -31.02893 -30.94278 -30.73040 -30.39712
 -30.36547 -30.01740 -29.79217 -28.51664 -27.86888 -27.63391 -27.03417 -26.64131
 -26.27647 -25.63393 -25.04751 -23.80188 -23.56384 -23.17871 -22.77352 -22.07489
 -21.98115 -21.08537 -20.43727 -20.31651 -19.73280 -19.01018 -18.80392 -18.65636
 -18.44553 -18.31362 -17.96550 -17.65874 -17.21113 -16.72961 -16.60915 -16.52410
 -16.41535 -16.10280 -16.01808 -15.89463 -15.62287 -15.46467 -15.20288 -15.13350
 -15.05063 -14.85003 -14.75108 -14.64931 -14.59065 -14.50780 -14.33336 -14.23838
 -14.01256 -13.84631 -13.74305 -13.45006 -13.32782 -13.01330 -12.89666 -12.73553
 -12.65901 -12.47294 -12.33283 -12.09336 -11.99526 -11.37322 -11.29152 -11.24757
 -10.98716 -10.77577 -10.40583 -10.09411 -10.02227  -9.85830  -8.84912  -0.89480
  -0.67605  -0.17549   0.07258   0.31195   0.32466   0.55069   0.84552   1.20851
   1.49245   1.63632   1.90732   1.95533   2.03137   2.16539   2.21439   2.38441
   2.52978   2.57268   2.67173   2.79049   2.80766   2.94300   2.98974   3.24494
   3.31682   3.50320   3.53515   3.80918   3.94421   4.02044   4.16559   4.21465
   4.25685   4.32687   4.37010   4.46363   4.49776   4.59478   4.62900   4.75054
   4.78787   4.81342   4.82276   4.86802   4.93536   4.97341   5.01888   5.05009
   5.10097   5.17716   5.21942   5.27104   5.37289   5.53840   5.64994   5.68307
   5.80587   5.83746   6.15737   6.25419


              NET ATOMIC CHARGES AND DIPOLE CONTRIBUTIONS

  ATOM NO.   TYPE          CHARGE      No. of ELECS.   s-Pop       p-Pop       
    1          C          -0.457508        4.4575     1.11144     3.34606
    2          C           0.463881        3.5361     1.08159     2.45453
    3          C          -0.467388        4.4674     1.10380     3.36359
    4          C           0.433309        3.5667     1.08357     2.48312
    5          C          -0.463306        4.4633     1.11257     3.35074
    6          C           0.146811        3.8532     1.10612     2.74707
    7          O          -0.307835        6.3078     1.83130     4.47654
    8          C           0.149069        3.8509     1.12586     2.72507
    9          C          -0.294298        4.2943     1.11419     3.18011
   10          C           0.605898        3.3941     1.07451     2.31959
   11          O          -0.495860        6.4959     1.85297     4.64289
   12          C          -0.042307        4.0423     1.07219     2.97012
   13          C          -0.057535        4.0575     1.10424     2.95329
   14          C          -0.362440        4.3624     1.10605     3.25639
   15          C           0.339530        3.6605     1.08144     2.57903
   16          C          -0.288883        4.2889     1.10546     3.18343
   17          C          -0.029925        4.0299     1.11070     2.91923
   18          O          -0.458566        6.4586     1.83893     4.61964
   19          O          -0.456470        6.4565     1.84549     4.61098
   20          C           0.339023        3.6610     1.12884     2.53213
   21          C           0.038931        3.9611     1.12290     2.83817
   22          C           0.051255        3.9487     1.13256     2.81619
   23          O          -0.552766        6.5528     1.82606     4.72670
   24          O          -0.555297        6.5553     1.82479     4.73051
   25          O          -0.538336        6.5383     1.82519     4.71315
   26          C          -0.063690        4.0637     1.11291     2.95078
   27          C           0.044614        3.9554     1.12169     2.83370
   28          C           0.084828        3.9152     1.11653     2.79864
   29          O          -0.541209        6.5412     1.82014     4.72107
   30          O          -0.470593        6.4706     1.80626     4.66433
   31          H           0.202282        0.7977     0.79772
   32          H           0.216309        0.7837     0.78369
   33          H           0.162139        0.8379     0.83786
   34          H           0.177749        0.8223     0.82225
   35          H           0.142010        0.8580     0.85799
   36          H           0.167261        0.8327     0.83274
   37          H           0.184215        0.8158     0.81578
   38          H           0.168548        0.8315     0.83145
   39          H           0.175621        0.8244     0.82438
   40          H           0.154709        0.8453     0.84529
   41          H           0.167440        0.8326     0.83256
   42          H           0.333553        0.6664     0.66645
   43          H           0.336234        0.6638     0.66377
   44          H           0.333600        0.6664     0.66640
   45          H           0.168466        0.8315     0.83153
   46          H           0.144790        0.8552     0.85521
   47          H           0.176282        0.8237     0.82372
   48          H           0.160903        0.8391     0.83910
   49          H           0.312717        0.6873     0.68728
   50          H           0.322236        0.6778     0.67776
 DIPOLE           X         Y         Z       TOTAL
 POINT-CHG.    -0.779    -1.144     1.472     2.021
 HYBRID        -0.585    -0.106     0.687     0.909
 SUM           -1.365    -1.250     2.159     2.844


          ATOMIC ORBITAL ELECTRON POPULATIONS

     Atom    s        px        py        pz   
    1  C   1.11144   1.11099   1.12172   1.11335
    2  C   1.08159   0.76501   0.79442   0.89511
    3  C   1.10380   1.04668   1.18445   1.13246
    4  C   1.08357   0.82850   0.86230   0.79232
    5  C   1.11257   1.11635   1.16496   1.06942
    6  C   1.10612   0.88504   0.89536   0.96666
    7  O   1.83130   1.36762   1.63337   1.47554
    8  C   1.12586   0.81300   0.89648   1.01559
    9  C   1.11419   1.05351   1.07749   1.04911
   10  C   1.07451   0.79866   0.73760   0.78333
   11  O   1.85297   1.76033   1.41976   1.46280
   12  C   1.07219   0.92569   0.97156   1.07286
   13  C   1.10424   0.95367   1.04753   0.95210
   14  C   1.10605   1.07122   1.02562   1.15955
   15  C   1.08144   0.80488   0.88548   0.88867
   16  C   1.10546   0.97939   1.09759   1.10645
   17  C   1.11070   1.02693   0.97462   0.91768
   18  O   1.83893   1.42547   1.67266   1.52151
   19  O   1.84549   1.63068   1.45769   1.52260
   20  C   1.12884   0.82730   0.80096   0.90387
   21  C   1.12290   0.81100   0.96036   1.06681
   22  C   1.13256   0.92468   0.95704   0.93447
   23  O   1.82606   1.35148   1.58532   1.78991
   24  O   1.82479   1.50944   1.52836   1.69271
   25  O   1.82519   1.80320   1.43617   1.47378
   26  C   1.11291   0.93703   0.97606   1.03769
   27  C   1.12169   0.97507   0.92294   0.93569
   28  C   1.11653   0.98075   0.85729   0.96061
   29  O   1.82014   1.66476   1.52792   1.52838
   30  O   1.80626   1.29854   1.51538   1.85041
   31  H   0.79772
   32  H   0.78369
   33  H   0.83786
   34  H   0.82225
   35  H   0.85799
   36  H   0.83274
   37  H   0.81578
   38  H   0.83145
   39  H   0.82438
   40  H   0.84529
   41  H   0.83256
   42  H   0.66645
   43  H   0.66377
   44  H   0.66640
   45  H   0.83153
   46  H   0.85521
   47  H   0.82372
   48  H   0.83910
   49  H   0.68728
   50  H   0.67776

 **********************
 *                    *
 * JOB ENDED NORMALLY *
 *                    *
 **********************



 TOTAL JOB TIME:            30.26 SECONDS

 == MOPAC DONE ==
