 *******************************************************************************
 ** Site#: 35412        For non-commercial use only    Version 20.225L 64BITS **
 *******************************************************************************
 ** Cite this program as: MOPAC2016, Version: 20.225L, James J. P. Stewart,   **
 ** Stewart Computational Chemistry, web: HTTP://OpenMOPAC.net. Days left: 364**
 *******************************************************************************
 **                                                                           **
 **                                MOPAC2016                                  **
 **                                                                           **
 *******************************************************************************

                              PM6 CALCULATION RESULTS

 *******************************************************************************
 *  CALCULATION DONE:                                Fri Aug 14 20:41:53 2020  *
 *  PM6        - The PM6 Hamiltonian to be used
 *  SINGLET    - SPIN STATE DEFINED AS A SINGLET
 *  OPT        - OPTIMIZE COORDINATES OF ALL ATOMS
 *
 *
 *
 *                 CHARGE ON SYSTEM = 0
 *
 *
 *
 *  PRECISE    - CRITERIA TO BE INCREASED BY 100 TIMES
 *  T=         - A TIME OF 172800.0 SECONDS REQUESTED
 *  DUMP=N     - RESTART FILE WRITTEN EVERY 7200.0 SECONDS REQUESTED
 *  AUX        - OUTPUT AUXILIARY INFORMATION
 *  PRTXYZ     - PRINT CARTESIAN COORDINATES
 *  LARGE      - EXPANDED OUTPUT TO BE PRINTED
 *******************************************************************************
 AUX LARGE CHARGE=0 SINGLET  PM6  OPT PRECISE PRTXYZ
 CN285.pdb
 36
   ATOM   CHEMICAL          X               Y               Z
  NUMBER   SYMBOL      (ANGSTROMS)     (ANGSTROMS)     (ANGSTROMS)
 
     1       N          0.23400000  *   0.62300000  *  -0.62400000  *
     2       C          0.06200000  *  -0.63200000  *   0.04700000  *
     3       C          1.28500000  *  -1.44700000  *  -0.20800000  *
     4       N          2.48600000  *  -0.87200000  *  -0.23600000  *
     5       C          2.62100000  *   0.53900000  *  -0.00800000  *
     6       C          1.43200000  *   1.20400000  *  -0.67100000  *
     7       C          4.01700000  *   1.07700000  *  -0.45900000  *
     8       C         -1.21000000  *  -1.40700000  *  -0.37400000  *
     9       C         -2.54100000  *  -0.69000000  *  -0.10600000  *
    10       O          1.17700000  *  -2.65900000  *  -0.40600000  *
    11       O          1.55500000  *   2.27000000  *  -1.27700000  *
    12       C         -2.62900000  *   0.50800000  *   0.60500000  *
    13       C         -3.87100000  *   1.10100000  *   0.82100000  *
    14       C         -5.02700000  *   0.50600000  *   0.33200000  *
    15       C         -4.94300000  *  -0.68700000  *  -0.37600000  *
    16       C         -3.70500000  *  -1.28000000  *  -0.59300000  *
    17       C          5.10500000  *   0.29900000  *   0.28800000  *
    18       C          4.20100000  *   2.58100000  *  -0.12300000  *
    19       H         -0.53400000  *   1.05100000  *  -1.07100000  *
    20       H          0.02000000  *  -0.42000000  *   1.12600000  *
    21       H          3.28800000  *  -1.42300000  *  -0.41700000  *
    22       H          2.51400000  *   0.68500000  *   1.07700000  *
    23       H          4.13300000  *   0.92400000  *  -1.54200000  *
    24       H         -1.16700000  *  -1.66600000  *  -1.44200000  *
    25       H         -1.23900000  *  -2.36000000  *   0.17100000  *
    26       H         -1.76200000  *   0.97600000  *   0.98800000  *
    27       H         -3.93800000  *   2.01500000  *   1.36500000  *
    28       H         -5.97800000  *   0.96100000  *   0.50100000  *
    29       H         -5.82800000  *  -1.14700000  *  -0.75100000  *
    30       H         -3.64700000  *  -2.19300000  *  -1.13300000  *
    31       H          6.09500000  *   0.65900000  *  -0.02700000  *
    32       H          5.01100000  *  -0.77200000  *   0.05800000  *
    33       H          4.98300000  *   0.45400000  *   1.36800000  *
    34       H          5.19600000  *   2.90200000  *  -0.45000000  *
    35       H          4.10800000  *   2.73000000  *   0.96300000  *
    36       H          3.44100000  *   3.17900000  *  -0.64100000  *
 


          CARTESIAN COORDINATES 

    NO.       ATOM           X           Y           Z

     1         N          0.2340      0.6230     -0.6240
     2         C          0.0620     -0.6320      0.0470
     3         C          1.2850     -1.4470     -0.2080
     4         N          2.4860     -0.8720     -0.2360
     5         C          2.6210      0.5390     -0.0080
     6         C          1.4320      1.2040     -0.6710
     7         C          4.0170      1.0770     -0.4590
     8         C         -1.2100     -1.4070     -0.3740
     9         C         -2.5410     -0.6900     -0.1060
    10         O          1.1770     -2.6590     -0.4060
    11         O          1.5550      2.2700     -1.2770
    12         C         -2.6290      0.5080      0.6050
    13         C         -3.8710      1.1010      0.8210
    14         C         -5.0270      0.5060      0.3320
    15         C         -4.9430     -0.6870     -0.3760
    16         C         -3.7050     -1.2800     -0.5930
    17         C          5.1050      0.2990      0.2880
    18         C          4.2010      2.5810     -0.1230
    19         H         -0.5340      1.0510     -1.0710
    20         H          0.0200     -0.4200      1.1260
    21         H          3.2880     -1.4230     -0.4170
    22         H          2.5140      0.6850      1.0770
    23         H          4.1330      0.9240     -1.5420
    24         H         -1.1670     -1.6660     -1.4420
    25         H         -1.2390     -2.3600      0.1710
    26         H         -1.7620      0.9760      0.9880
    27         H         -3.9380      2.0150      1.3650
    28         H         -5.9780      0.9610      0.5010
    29         H         -5.8280     -1.1470     -0.7510
    30         H         -3.6470     -2.1930     -1.1330
    31         H          6.0950      0.6590     -0.0270
    32         H          5.0110     -0.7720      0.0580
    33         H          4.9830      0.4540      1.3680
    34         H          5.1960      2.9020     -0.4500
    35         H          4.1080      2.7300      0.9630
    36         H          3.4410      3.1790     -0.6410

 General Reference for PM6:
 "Optimization of Parameters for Semiempirical Methods V: Modification of NDDO Approximations
 and Application to 70 Elements", J. J. P. Stewart, J. Mol. Mod., 13, 1173-1213 (2007)
 URL: https://link.springer.com/article/10.1007/s00894-007-0233-4

           Empirical Formula: C14 H18 N2 O2  =    36 atoms



      MOLECULAR POINT GROUP   :   C1  


 SINGLET STATE CALCULATION


      RHF CALCULATION, NO. OF DOUBLY OCCUPIED LEVELS = 48


          Geometry optimization using L-BFGS
 CYCLE:     1 TIME:   0.109 TIME LEFT:  2.00D  GRAD.:   188.555 HEAT: -59.33222
 CYCLE:     2 TIME:   0.016 TIME LEFT:  2.00D  GRAD.:   184.545 HEAT: -59.68398
 CYCLE:     3 TIME:   0.031 TIME LEFT:  2.00D  GRAD.:    67.958 HEAT: -71.59546
 CYCLE:     4 TIME:   0.023 TIME LEFT:  2.00D  GRAD.:   184.587 HEAT: -59.68420
 CYCLE:     5 TIME:   0.023 TIME LEFT:  2.00D  GRAD.:    67.975 HEAT: -71.59578
 CYCLE:     6 TIME:   0.023 TIME LEFT:  2.00D  GRAD.:    48.220 HEAT: -74.04349
 CYCLE:     7 TIME:   0.023 TIME LEFT:  2.00D  GRAD.:    68.030 HEAT: -75.33004
 CYCLE:     8 TIME:   0.016 TIME LEFT:  2.00D  GRAD.:    27.681 HEAT: -76.03391
 CYCLE:     9 TIME:   0.023 TIME LEFT:  2.00D  GRAD.:    14.911 HEAT: -76.20062
 CYCLE:    10 TIME:   0.031 TIME LEFT:  2.00D  GRAD.:    10.302 HEAT: -76.34752
 CYCLE:    11 TIME:   0.016 TIME LEFT:  2.00D  GRAD.:    12.532 HEAT: -76.52321
 CYCLE:    12 TIME:   0.023 TIME LEFT:  2.00D  GRAD.:    31.316 HEAT: -76.54748
 CYCLE:    13 TIME:   0.023 TIME LEFT:  2.00D  GRAD.:     9.339 HEAT: -76.69464
 CYCLE:    14 TIME:   0.023 TIME LEFT:  2.00D  GRAD.:     6.594 HEAT: -76.73374
 CYCLE:    15 TIME:   0.023 TIME LEFT:  2.00D  GRAD.:     7.774 HEAT: -76.78532
 CYCLE:    16 TIME:   0.023 TIME LEFT:  2.00D  GRAD.:     7.885 HEAT: -76.84794
 CYCLE:    17 TIME:   0.023 TIME LEFT:  2.00D  GRAD.:     9.110 HEAT: -76.93296
 CYCLE:    18 TIME:   0.023 TIME LEFT:  2.00D  GRAD.:    21.332 HEAT: -76.87678
 CYCLE:    19 TIME:   0.023 TIME LEFT:  2.00D  GRAD.:     3.807 HEAT: -76.98806
 CYCLE:    20 TIME:   0.023 TIME LEFT:  2.00D  GRAD.:     3.136 HEAT: -76.99778
 CYCLE:    21 TIME:   0.023 TIME LEFT:  2.00D  GRAD.:     4.800 HEAT: -77.02121
 CYCLE:    22 TIME:   0.039 TIME LEFT:  2.00D  GRAD.:     8.251 HEAT: -77.03062
 CYCLE:    23 TIME:   0.023 TIME LEFT:  2.00D  GRAD.:     3.848 HEAT: -77.04432
 CYCLE:    24 TIME:   0.031 TIME LEFT:  2.00D  GRAD.:     2.740 HEAT: -77.05151
 CYCLE:    25 TIME:   0.031 TIME LEFT:  2.00D  GRAD.:     3.678 HEAT: -77.05680
 CYCLE:    26 TIME:   0.031 TIME LEFT:  2.00D  GRAD.:     5.199 HEAT: -77.06921
 CYCLE:    27 TIME:   0.023 TIME LEFT:  2.00D  GRAD.:     4.590 HEAT: -77.08633
 CYCLE:    28 TIME:   0.023 TIME LEFT:  2.00D  GRAD.:     4.348 HEAT: -77.10830
 CYCLE:    29 TIME:   0.023 TIME LEFT:  2.00D  GRAD.:     8.473 HEAT: -77.12588
 CYCLE:    30 TIME:   0.023 TIME LEFT:  2.00D  GRAD.:     4.060 HEAT: -77.14657
 CYCLE:    31 TIME:   0.023 TIME LEFT:  2.00D  GRAD.:     3.765 HEAT: -77.16030
 CYCLE:    32 TIME:   0.023 TIME LEFT:  2.00D  GRAD.:     4.877 HEAT: -77.16814
 CYCLE:    33 TIME:   0.023 TIME LEFT:  2.00D  GRAD.:     5.135 HEAT: -77.16836
 CYCLE:    34 TIME:   0.023 TIME LEFT:  2.00D  GRAD.:     2.944 HEAT: -77.17380
 CYCLE:    35 TIME:   0.023 TIME LEFT:  2.00D  GRAD.:     3.271 HEAT: -77.17840
 CYCLE:    36 TIME:   0.023 TIME LEFT:  2.00D  GRAD.:     3.649 HEAT: -77.18296
 CYCLE:    37 TIME:   0.023 TIME LEFT:  2.00D  GRAD.:     8.030 HEAT: -77.18630
 CYCLE:    38 TIME:   0.016 TIME LEFT:  2.00D  GRAD.:     3.559 HEAT: -77.19813
 CYCLE:    39 TIME:   0.023 TIME LEFT:  2.00D  GRAD.:     2.508 HEAT: -77.20907
 CYCLE:    40 TIME:   0.016 TIME LEFT:  2.00D  GRAD.:     3.270 HEAT: -77.22668
 CYCLE:    41 TIME:   0.023 TIME LEFT:  2.00D  GRAD.:     6.192 HEAT: -77.24402
 CYCLE:    42 TIME:   0.031 TIME LEFT:  2.00D  GRAD.:     4.462 HEAT: -77.26316
 CYCLE:    43 TIME:   0.062 TIME LEFT:  2.00D  GRAD.:     3.922 HEAT: -77.28465
 CYCLE:    44 TIME:   0.023 TIME LEFT:  2.00D  GRAD.:     4.825 HEAT: -77.29214
 CYCLE:    45 TIME:   0.023 TIME LEFT:  2.00D  GRAD.:     2.985 HEAT: -77.29889
 CYCLE:    46 TIME:   0.023 TIME LEFT:  2.00D  GRAD.:     2.390 HEAT: -77.31068
 CYCLE:    47 TIME:   0.023 TIME LEFT:  2.00D  GRAD.:     2.618 HEAT: -77.31930
 CYCLE:    48 TIME:   0.023 TIME LEFT:  2.00D  GRAD.:     5.007 HEAT: -77.33142
 CYCLE:    49 TIME:   0.016 TIME LEFT:  2.00D  GRAD.:     2.386 HEAT: -77.33947
 CYCLE:    50 TIME:   0.031 TIME LEFT:  2.00D  GRAD.:     2.784 HEAT: -77.34537
 CYCLE:    51 TIME:   0.023 TIME LEFT:  2.00D  GRAD.:     3.498 HEAT: -77.35594
 CYCLE:    52 TIME:   0.023 TIME LEFT:  2.00D  GRAD.:     4.018 HEAT: -77.37382
 CYCLE:    53 TIME:   0.023 TIME LEFT:  2.00D  GRAD.:    11.172 HEAT: -77.37348
 CYCLE:    54 TIME:   0.023 TIME LEFT:  2.00D  GRAD.:     3.796 HEAT: -77.39152
 CYCLE:    55 TIME:   0.023 TIME LEFT:  2.00D  GRAD.:     2.014 HEAT: -77.39957
 CYCLE:    56 TIME:   0.023 TIME LEFT:  2.00D  GRAD.:     2.272 HEAT: -77.40502
 CYCLE:    57 TIME:   0.023 TIME LEFT:  2.00D  GRAD.:     2.876 HEAT: -77.41336
 CYCLE:    58 TIME:   0.023 TIME LEFT:  2.00D  GRAD.:     8.439 HEAT: -77.41400
 CYCLE:    59 TIME:   0.023 TIME LEFT:  2.00D  GRAD.:     2.928 HEAT: -77.42585
 CYCLE:    60 TIME:   0.023 TIME LEFT:  2.00D  GRAD.:     1.708 HEAT: -77.42997
 CYCLE:    61 TIME:   0.023 TIME LEFT:  2.00D  GRAD.:     2.302 HEAT: -77.43436
 CYCLE:    62 TIME:   0.023 TIME LEFT:  2.00D  GRAD.:     2.517 HEAT: -77.43989
 CYCLE:    63 TIME:   0.023 TIME LEFT:  2.00D  GRAD.:     6.747 HEAT: -77.44216
 CYCLE:    64 TIME:   0.031 TIME LEFT:  2.00D  GRAD.:     1.926 HEAT: -77.45036
 CYCLE:    65 TIME:   0.016 TIME LEFT:  2.00D  GRAD.:     1.817 HEAT: -77.45351
 CYCLE:    66 TIME:   0.031 TIME LEFT:  2.00D  GRAD.:     1.941 HEAT: -77.45779
 CYCLE:    67 TIME:   0.023 TIME LEFT:  2.00D  GRAD.:     2.185 HEAT: -77.46168
 CYCLE:    68 TIME:   0.023 TIME LEFT:  2.00D  GRAD.:     6.294 HEAT: -77.45589
 CYCLE:    69 TIME:   0.023 TIME LEFT:  2.00D  GRAD.:     1.135 HEAT: -77.46369
 CYCLE:    70 TIME:   0.023 TIME LEFT:  2.00D  GRAD.:     0.988 HEAT: -77.46422
 CYCLE:    71 TIME:   0.023 TIME LEFT:  2.00D  GRAD.:     1.704 HEAT: -77.46663
 CYCLE:    72 TIME:   0.023 TIME LEFT:  2.00D  GRAD.:     1.907 HEAT: -77.46879
 CYCLE:    73 TIME:   0.023 TIME LEFT:  2.00D  GRAD.:     1.457 HEAT: -77.47116
 CYCLE:    74 TIME:   0.023 TIME LEFT:  2.00D  GRAD.:     1.532 HEAT: -77.47496
 CYCLE:    75 TIME:   0.023 TIME LEFT:  2.00D  GRAD.:     2.647 HEAT: -77.47893
 CYCLE:    76 TIME:   0.016 TIME LEFT:  2.00D  GRAD.:     1.534 HEAT: -77.48197
 CYCLE:    77 TIME:   0.023 TIME LEFT:  2.00D  GRAD.:     1.270 HEAT: -77.48486
 CYCLE:    78 TIME:   0.031 TIME LEFT:  2.00D  GRAD.:     1.624 HEAT: -77.48707
 CYCLE:    79 TIME:   0.016 TIME LEFT:  2.00D  GRAD.:     1.859 HEAT: -77.49061
 CYCLE:    80 TIME:   0.023 TIME LEFT:  2.00D  GRAD.:     1.503 HEAT: -77.49460
 CYCLE:    81 TIME:   0.023 TIME LEFT:  2.00D  GRAD.:     2.173 HEAT: -77.49785
 CYCLE:    82 TIME:   0.016 TIME LEFT:  2.00D  GRAD.:     1.182 HEAT: -77.49994
 CYCLE:    83 TIME:   0.023 TIME LEFT:  2.00D  GRAD.:     1.284 HEAT: -77.50115
 CYCLE:    84 TIME:   0.023 TIME LEFT:  2.00D  GRAD.:     1.765 HEAT: -77.50323
 CYCLE:    85 TIME:   0.023 TIME LEFT:  2.00D  GRAD.:     3.376 HEAT: -77.50318
 CYCLE:    86 TIME:   0.062 TIME LEFT:  2.00D  GRAD.:     1.057 HEAT: -77.50557
 CYCLE:    87 TIME:   0.031 TIME LEFT:  2.00D  GRAD.:     0.914 HEAT: -77.50616
 CYCLE:    88 TIME:   0.023 TIME LEFT:  2.00D  GRAD.:     1.152 HEAT: -77.50659
 CYCLE:    89 TIME:   0.023 TIME LEFT:  2.00D  GRAD.:     1.259 HEAT: -77.50717
 CYCLE:    90 TIME:   0.023 TIME LEFT:  2.00D  GRAD.:     2.221 HEAT: -77.50593
 CYCLE:    91 TIME:   0.023 TIME LEFT:  2.00D  GRAD.:     0.777 HEAT: -77.50757
 CYCLE:    92 TIME:   0.016 TIME LEFT:  2.00D  GRAD.:     0.775 HEAT: -77.50810
 CYCLE:    93 TIME:   0.023 TIME LEFT:  2.00D  GRAD.:     0.975 HEAT: -77.50859
 CYCLE:    94 TIME:   0.023 TIME LEFT:  2.00D  GRAD.:     3.170 HEAT: -77.50702
 CYCLE:    95 TIME:   0.016 TIME LEFT:  2.00D  GRAD.:     0.982 HEAT: -77.50851
 CYCLE:    96 TIME:   0.023 TIME LEFT:  2.00D  GRAD.:     0.805 HEAT: -77.50861
 CYCLE:    97 TIME:   0.031 TIME LEFT:  2.00D  GRAD.:     1.031 HEAT: -77.50833
 CYCLE:    98 TIME:   0.016 TIME LEFT:  2.00D  GRAD.:     1.208 HEAT: -77.50856
 CYCLE:    99 TIME:   0.031 TIME LEFT:  2.00D  GRAD.:     2.796 HEAT: -77.50749
 CYCLE:   100 TIME:   0.023 TIME LEFT:  2.00D  GRAD.:     1.005 HEAT: -77.50901
 CYCLE:   101 TIME:   0.023 TIME LEFT:  2.00D  GRAD.:     0.958 HEAT: -77.50962
 CYCLE:   102 TIME:   0.023 TIME LEFT:  2.00D  GRAD.:     1.368 HEAT: -77.51222
 CYCLE:   103 TIME:   0.016 TIME LEFT:  2.00D  GRAD.:     4.144 HEAT: -77.51326
 CYCLE:   104 TIME:   0.023 TIME LEFT:  2.00D  GRAD.:     1.431 HEAT: -77.51608
 CYCLE:   105 TIME:   0.023 TIME LEFT:  2.00D  GRAD.:     1.036 HEAT: -77.51783
 CYCLE:   106 TIME:   0.023 TIME LEFT:  2.00D  GRAD.:     1.382 HEAT: -77.51964
 CYCLE:   107 TIME:   0.023 TIME LEFT:  2.00D  GRAD.:     1.325 HEAT: -77.52302
 CYCLE:   108 TIME:   0.023 TIME LEFT:  2.00D  GRAD.:     2.894 HEAT: -77.52538
 CYCLE:   109 TIME:   0.031 TIME LEFT:  2.00D  GRAD.:     1.189 HEAT: -77.52790
 CYCLE:   110 TIME:   0.016 TIME LEFT:  2.00D  GRAD.:     0.861 HEAT: -77.52859
 CYCLE:   111 TIME:   0.023 TIME LEFT:  2.00D  GRAD.:     0.819 HEAT: -77.52935
 CYCLE:   112 TIME:   0.023 TIME LEFT:  2.00D  GRAD.:     2.351 HEAT: -77.52949
 CYCLE:   113 TIME:   0.023 TIME LEFT:  2.00D  GRAD.:     0.908 HEAT: -77.53034
 CYCLE:   114 TIME:   0.023 TIME LEFT:  2.00D  GRAD.:     0.674 HEAT: -77.53111
 CYCLE:   115 TIME:   0.023 TIME LEFT:  2.00D  GRAD.:     1.088 HEAT: -77.53239
 CYCLE:   116 TIME:   0.016 TIME LEFT:  2.00D  GRAD.:     1.204 HEAT: -77.53386
 CYCLE:   117 TIME:   0.023 TIME LEFT:  2.00D  GRAD.:     1.640 HEAT: -77.53699
 CYCLE:   118 TIME:   0.023 TIME LEFT:  2.00D  GRAD.:     2.951 HEAT: -77.53819
 CYCLE:   119 TIME:   0.023 TIME LEFT:  2.00D  GRAD.:     0.910 HEAT: -77.53954
 CYCLE:   120 TIME:   0.016 TIME LEFT:  2.00D  GRAD.:     0.751 HEAT: -77.54000
 CYCLE:   121 TIME:   0.023 TIME LEFT:  2.00D  GRAD.:     0.965 HEAT: -77.54044
 CYCLE:   122 TIME:   0.023 TIME LEFT:  2.00D  GRAD.:     1.873 HEAT: -77.54066
 CYCLE:   123 TIME:   0.023 TIME LEFT:  2.00D  GRAD.:     1.175 HEAT: -77.54140
 CYCLE:   124 TIME:   0.016 TIME LEFT:  2.00D  GRAD.:     0.922 HEAT: -77.54207
 CYCLE:   125 TIME:   0.023 TIME LEFT:  2.00D  GRAD.:     1.246 HEAT: -77.54273
 CYCLE:   126 TIME:   0.023 TIME LEFT:  2.00D  GRAD.:     1.551 HEAT: -77.54321
 CYCLE:   127 TIME:   0.023 TIME LEFT:  2.00D  GRAD.:     1.339 HEAT: -77.54382
 CYCLE:   128 TIME:   0.031 TIME LEFT:  2.00D  GRAD.:     1.363 HEAT: -77.54469
 CYCLE:   129 TIME:   0.016 TIME LEFT:  2.00D  GRAD.:     1.397 HEAT: -77.54546
 CYCLE:   130 TIME:   0.031 TIME LEFT:  2.00D  GRAD.:     1.677 HEAT: -77.54670
 CYCLE:   131 TIME:   0.070 TIME LEFT:  2.00D  GRAD.:     1.244 HEAT: -77.54872
 CYCLE:   132 TIME:   0.023 TIME LEFT:  2.00D  GRAD.:     1.042 HEAT: -77.55116
 CYCLE:   133 TIME:   0.031 TIME LEFT:  2.00D  GRAD.:     2.443 HEAT: -77.55290
 CYCLE:   134 TIME:   0.016 TIME LEFT:  2.00D  GRAD.:     1.349 HEAT: -77.55463
 CYCLE:   135 TIME:   0.023 TIME LEFT:  2.00D  GRAD.:     0.943 HEAT: -77.55571
 CYCLE:   136 TIME:   0.023 TIME LEFT:  2.00D  GRAD.:     1.160 HEAT: -77.55673
 CYCLE:   137 TIME:   0.023 TIME LEFT:  2.00D  GRAD.:     1.844 HEAT: -77.55793
 CYCLE:   138 TIME:   0.039 TIME LEFT:  2.00D  GRAD.:     1.042 HEAT: -77.55921
 CYCLE:   139 TIME:   0.023 TIME LEFT:  2.00D  GRAD.:     0.724 HEAT: -77.56024
 CYCLE:   140 TIME:   0.023 TIME LEFT:  2.00D  GRAD.:     0.845 HEAT: -77.56090
 CYCLE:   141 TIME:   0.023 TIME LEFT:  2.00D  GRAD.:     1.318 HEAT: -77.56115
 CYCLE:   142 TIME:   0.023 TIME LEFT:  2.00D  GRAD.:     0.782 HEAT: -77.56179
 CYCLE:   143 TIME:   0.023 TIME LEFT:  2.00D  GRAD.:     0.559 HEAT: -77.56219
 CYCLE:   144 TIME:   0.023 TIME LEFT:  2.00D  GRAD.:     0.577 HEAT: -77.56254
 CYCLE:   145 TIME:   0.023 TIME LEFT:  2.00D  GRAD.:     1.175 HEAT: -77.56370
 CYCLE:   146 TIME:   0.023 TIME LEFT:  2.00D  GRAD.:     0.673 HEAT: -77.56462
 CYCLE:   147 TIME:   0.023 TIME LEFT:  2.00D  GRAD.:     0.489 HEAT: -77.56516
 CYCLE:   148 TIME:   0.023 TIME LEFT:  2.00D  GRAD.:     0.592 HEAT: -77.56592
 CYCLE:   149 TIME:   0.023 TIME LEFT:  2.00D  GRAD.:     0.970 HEAT: -77.56688
 CYCLE:   150 TIME:   0.023 TIME LEFT:  2.00D  GRAD.:     0.620 HEAT: -77.56773
 CYCLE:   151 TIME:   0.031 TIME LEFT:  2.00D  GRAD.:     0.459 HEAT: -77.56812
 CYCLE:   152 TIME:   0.016 TIME LEFT:  2.00D  GRAD.:     0.578 HEAT: -77.56842
 CYCLE:   153 TIME:   0.023 TIME LEFT:  2.00D  GRAD.:     0.627 HEAT: -77.56889
 CYCLE:   154 TIME:   0.023 TIME LEFT:  2.00D  GRAD.:     0.689 HEAT: -77.56961
 CYCLE:   155 TIME:   0.023 TIME LEFT:  2.00D  GRAD.:     1.181 HEAT: -77.57037
 CYCLE:   156 TIME:   0.023 TIME LEFT:  2.00D  GRAD.:     0.513 HEAT: -77.57084
 CYCLE:   157 TIME:   0.016 TIME LEFT:  2.00D  GRAD.:     0.481 HEAT: -77.57137
 CYCLE:   158 TIME:   0.031 TIME LEFT:  2.00D  GRAD.:     0.760 HEAT: -77.57254
 CYCLE:   159 TIME:   0.023 TIME LEFT:  2.00D  GRAD.:     1.307 HEAT: -77.57442
 CYCLE:   160 TIME:   0.023 TIME LEFT:  2.00D  GRAD.:     0.694 HEAT: -77.57571
 CYCLE:   161 TIME:   0.023 TIME LEFT:  2.00D  GRAD.:     0.472 HEAT: -77.57651
 CYCLE:   162 TIME:   0.023 TIME LEFT:  2.00D  GRAD.:     0.517 HEAT: -77.57736
 CYCLE:   163 TIME:   0.023 TIME LEFT:  2.00D  GRAD.:     1.152 HEAT: -77.57835
 CYCLE:   164 TIME:   0.023 TIME LEFT:  2.00D  GRAD.:     0.543 HEAT: -77.57881
 CYCLE:   165 TIME:   0.016 TIME LEFT:  2.00D  GRAD.:     0.397 HEAT: -77.57912
 CYCLE:   166 TIME:   0.023 TIME LEFT:  2.00D  GRAD.:     0.477 HEAT: -77.57953
 CYCLE:   167 TIME:   0.031 TIME LEFT:  2.00D  GRAD.:     0.588 HEAT: -77.57992
 CYCLE:   168 TIME:   0.023 TIME LEFT:  2.00D  GRAD.:     1.081 HEAT: -77.58062
 CYCLE:   169 TIME:   0.016 TIME LEFT:  2.00D  GRAD.:     0.524 HEAT: -77.58123
 CYCLE:   170 TIME:   0.023 TIME LEFT:  2.00D  GRAD.:     0.640 HEAT: -77.58142
 CYCLE:   171 TIME:   0.023 TIME LEFT:  2.00D  GRAD.:     0.935 HEAT: -77.58184
 CYCLE:   172 TIME:   0.031 TIME LEFT:  2.00D  GRAD.:     1.072 HEAT: -77.58220
 CYCLE:   173 TIME:   0.023 TIME LEFT:  2.00D  GRAD.:     1.201 HEAT: -77.58251
 CYCLE:   174 TIME:   0.062 TIME LEFT:  2.00D  GRAD.:     1.173 HEAT: -77.58277
 CYCLE:   175 TIME:   0.023 TIME LEFT:  2.00D  GRAD.:     1.640 HEAT: -77.58297
 CYCLE:   176 TIME:   0.031 TIME LEFT:  2.00D  GRAD.:     1.611 HEAT: -77.58328
 CYCLE:   177 TIME:   0.016 TIME LEFT:  2.00D  GRAD.:     1.633 HEAT: -77.58342
 CYCLE:   178 TIME:   0.023 TIME LEFT:  2.00D  GRAD.:     2.005 HEAT: -77.58322
 CYCLE:   179 TIME:   0.023 TIME LEFT:  2.00D  GRAD.:     4.754 HEAT: -77.58145
 CYCLE:   180 TIME:   0.016 TIME LEFT:  2.00D  GRAD.:     4.163 HEAT: -77.58307
 CYCLE:   181 TIME:   0.031 TIME LEFT:  2.00D  GRAD.:    16.009 HEAT: -77.50159
 CYCLE:   182 TIME:   0.016 TIME LEFT:  2.00D  GRAD.:    13.727 HEAT: -77.52740
 CYCLE:   183 TIME:   0.031 TIME LEFT:  2.00D  GRAD.:     6.441 HEAT: -77.57771
 CYCLE:   184 TIME:   0.016 TIME LEFT:  2.00D  GRAD.:     4.299 HEAT: -77.58118
 CYCLE:   185 TIME:   0.023 TIME LEFT:  2.00D  GRAD.:     5.175 HEAT: -77.58234
 CYCLE:   186 TIME:   0.023 TIME LEFT:  2.00D  GRAD.:     7.827 HEAT: -77.57539
 CYCLE:   187 TIME:   0.023 TIME LEFT:  2.00D  GRAD.:    27.768 HEAT: -77.44341
 CYCLE:   188 TIME:   0.016 TIME LEFT:  2.00D  GRAD.:    33.944 HEAT: -77.36110
 CYCLE:   189 TIME:   0.023 TIME LEFT:  2.00D  GRAD.:    27.770 HEAT: -77.41488
 CYCLE:   190 TIME:   0.023 TIME LEFT:  2.00D  GRAD.:    19.670 HEAT: -77.50555
 CYCLE:   191 TIME:   0.023 TIME LEFT:  2.00D  GRAD.:    13.620 HEAT: -77.55150
 CYCLE:   192 TIME:   0.023 TIME LEFT:  2.00D  GRAD.:    26.103 HEAT: -77.45184
 CYCLE:   193 TIME:   0.023 TIME LEFT:  2.00D  GRAD.:    53.863 HEAT: -77.05426
 CYCLE:   194 TIME:   0.023 TIME LEFT:  2.00D  GRAD.:    19.768 HEAT: -77.50694


           HEAT OF FORMATION IS ESSENTIALLY STATIONARY


          CURRENT BEST VALUE OF HEAT OF FORMATION =    -77.583418
 
 AUX LARGE CHARGE=0 SINGLET  PM6  OPT PRECISE PRTXYZ
 CN285.pdb
 36
  N     0.24165259 +1   0.71723703 +1  -0.57867916 +1
  C     0.00211249 +1  -0.54890385 +1   0.14866025 +1
  C     1.23648939 +1  -1.47181537 +1   0.05483859 +1
  N     2.47707704 +1  -0.84728911 +1   0.02587364 +1
  C     2.64905602 +1   0.62336740 +1   0.06217399 +1
  C     1.50461655 +1   1.29253399 +1  -0.72663603 +1
  C     4.04866534 +1   1.03588519 +1  -0.48684768 +1
  C    -1.22222988 +1  -1.28557498 +1  -0.41423816 +1
  C    -2.56014103 +1  -0.66353492 +1  -0.12670896 +1
  O     1.16696670 +1  -2.68786623 +1   0.03664850 +1
  O     1.61474660 +1   2.29833876 +1  -1.40386107 +1
  C    -2.73444930 +1   0.39813933 +1   0.77021926 +1
  C    -4.01118988 +1   0.92251410 +1   1.00059011 +1
  C    -5.12206293 +1   0.39457826 +1   0.34044468 +1
  C    -4.95385194 +1  -0.67091791 +1  -0.55201072 +1
  C    -3.68341323 +1  -1.19737828 +1  -0.78542665 +1
  C     5.16424257 +1   0.22404223 +1   0.18060416 +1
  C     4.28024287 +1   2.53094015 +1  -0.25884506 +1
  H    -0.54547523 +1   1.10713127 +1  -1.10251095 +1
  H    -0.15892755 +1  -0.31845515 +1   1.24151002 +1
  H     3.32133127 +1  -1.41833589 +1  -0.06176598 +1
  H     2.56178624 +1   0.97581069 +1   1.12919748 +1
  H     4.06258376 +1   0.83652187 +1  -1.58867717 +1
  H    -1.10018452 +1  -1.42487909 +1  -1.51246721 +1
  H    -1.21444989 +1  -2.33052718 +1  -0.00781646 +1
  H    -1.88498466 +1   0.82634058 +1   1.29872436 +1
  H    -4.13533823 +1   1.74757182 +1   1.70096738 +1
  H    -6.11297679 +1   0.80701809 +1   0.51723194 +1
  H    -5.81784199 +1  -1.09057067 +1  -1.06569788 +1
  H    -3.56463648 +1  -2.02845623 +1  -1.47872768 +1
  H     6.14945926 +1   0.56703413 +1  -0.16170519 +1
  H     5.10704841 +1  -0.84496429 +1  -0.05546193 +1
  H     5.15163961 +1   0.32632822 +1   1.27181478 +1
  H     5.25146545 +1   2.84424403 +1  -0.65906006 +1
  H     4.25932672 +1   2.80617603 +1   0.79957902 +1
  H     3.51664457 +1   3.13671600 +1  -0.77693439 +1
 
 

 -------------------------------------------------------------------------------
 AUX LARGE CHARGE=0 SINGLET  PM6  OPT PRECISE PRTXYZ
 CN285.pdb
 36


     HERBERTS TEST WAS SATISFIED IN BFGS                      
     SCF FIELD WAS ACHIEVED                                   


                              PM6 CALCULATION
                                                       MOPAC2016 (Version: 20.225L)
                                                       Fri Aug 14 20:41:58 2020
                                                       No. of days remaining = 364




          FINAL HEAT OF FORMATION =        -77.58342 KCAL/MOL =    -324.60902 KJ/MOL


          TOTAL ENERGY            =      -2902.13076 EV
          ELECTRONIC ENERGY       =     -19835.98291 EV  POINT GROUP:     C1  
          CORE-CORE REPULSION     =      16933.85215 EV
          COSMO AREA              =        278.59 SQUARE ANGSTROMS
          COSMO VOLUME            =        303.78 CUBIC ANGSTROMS

          GRADIENT NORM           =          1.63280 = 0.27213 PER ATOM
          IONIZATION POTENTIAL    =          9.601106 EV
          HOMO LUMO ENERGIES (EV) =         -9.601  0.129
          NO. OF FILLED LEVELS    =         48
          MOLECULAR WEIGHT        =        246.3084

          MOLECULAR DIMENSIONS (Angstroms)

            Atom       Atom       Distance
            H    31    H    28    12.28356
            H    36    O    10     5.90972
            H    30    H    27     3.55654


          SCF CALCULATIONS        =        196
 
          WALL-CLOCK TIME         =          4.898 SECONDS
          COMPUTATION TIME        =          8.672 SECONDS




   ATOM   CHEMICAL          X               Y               Z
  NUMBER   SYMBOL      (ANGSTROMS)     (ANGSTROMS)     (ANGSTROMS)
 
     1       N          0.24165259  *   0.71723703  *  -0.57867916  *
     2       C          0.00211249  *  -0.54890385  *   0.14866025  *
     3       C          1.23648939  *  -1.47181537  *   0.05483859  *
     4       N          2.47707704  *  -0.84728911  *   0.02587364  *
     5       C          2.64905602  *   0.62336740  *   0.06217399  *
     6       C          1.50461655  *   1.29253399  *  -0.72663603  *
     7       C          4.04866534  *   1.03588519  *  -0.48684768  *
     8       C         -1.22222988  *  -1.28557498  *  -0.41423816  *
     9       C         -2.56014103  *  -0.66353492  *  -0.12670896  *
    10       O          1.16696670  *  -2.68786623  *   0.03664850  *
    11       O          1.61474660  *   2.29833876  *  -1.40386107  *
    12       C         -2.73444930  *   0.39813933  *   0.77021926  *
    13       C         -4.01118988  *   0.92251410  *   1.00059011  *
    14       C         -5.12206293  *   0.39457826  *   0.34044468  *
    15       C         -4.95385194  *  -0.67091791  *  -0.55201072  *
    16       C         -3.68341323  *  -1.19737828  *  -0.78542665  *
    17       C          5.16424257  *   0.22404223  *   0.18060416  *
    18       C          4.28024287  *   2.53094015  *  -0.25884506  *
    19       H         -0.54547523  *   1.10713127  *  -1.10251095  *
    20       H         -0.15892755  *  -0.31845515  *   1.24151002  *
    21       H          3.32133127  *  -1.41833589  *  -0.06176598  *
    22       H          2.56178624  *   0.97581069  *   1.12919748  *
    23       H          4.06258376  *   0.83652187  *  -1.58867717  *
    24       H         -1.10018452  *  -1.42487909  *  -1.51246721  *
    25       H         -1.21444989  *  -2.33052718  *  -0.00781646  *
    26       H         -1.88498466  *   0.82634058  *   1.29872436  *
    27       H         -4.13533823  *   1.74757182  *   1.70096738  *
    28       H         -6.11297679  *   0.80701809  *   0.51723194  *
    29       H         -5.81784199  *  -1.09057067  *  -1.06569788  *
    30       H         -3.56463648  *  -2.02845623  *  -1.47872768  *
    31       H          6.14945926  *   0.56703413  *  -0.16170519  *
    32       H          5.10704841  *  -0.84496429  *  -0.05546193  *
    33       H          5.15163961  *   0.32632822  *   1.27181478  *
    34       H          5.25146545  *   2.84424403  *  -0.65906006  *
    35       H          4.25932672  *   2.80617603  *   0.79957902  *
    36       H          3.51664457  *   3.13671600  *  -0.77693439  *

                             CARTESIAN COORDINATES

   1    N        0.241652587     0.717237031    -0.578679156
   2    C        0.002112494    -0.548903846     0.148660254
   3    C        1.236489393    -1.471815371     0.054838588
   4    N        2.477077040    -0.847289111     0.025873636
   5    C        2.649056021     0.623367398     0.062173986
   6    C        1.504616546     1.292533990    -0.726636026
   7    C        4.048665339     1.035885186    -0.486847676
   8    C       -1.222229884    -1.285574983    -0.414238160
   9    C       -2.560141025    -0.663534925    -0.126708956
  10    O        1.166966703    -2.687866233     0.036648501
  11    O        1.614746604     2.298338758    -1.403861069
  12    C       -2.734449296     0.398139326     0.770219265
  13    C       -4.011189885     0.922514098     1.000590110
  14    C       -5.122062926     0.394578262     0.340444679
  15    C       -4.953851944    -0.670917908    -0.552010717
  16    C       -3.683413234    -1.197378279    -0.785426649
  17    C        5.164242572     0.224042225     0.180604164
  18    C        4.280242870     2.530940153    -0.258845057
  19    H       -0.545475230     1.107131270    -1.102510953
  20    H       -0.158927547    -0.318455154     1.241510021
  21    H        3.321331270    -1.418335888    -0.061765976
  22    H        2.561786243     0.975810695     1.129197475
  23    H        4.062583760     0.836521874    -1.588677173
  24    H       -1.100184523    -1.424879095    -1.512467213
  25    H       -1.214449892    -2.330527178    -0.007816456
  26    H       -1.884984665     0.826340581     1.298724359
  27    H       -4.135338230     1.747571824     1.700967378
  28    H       -6.112976790     0.807018087     0.517231939
  29    H       -5.817841993    -1.090570672    -1.065697877
  30    H       -3.564636480    -2.028456227    -1.478727684
  31    H        6.149459260     0.567034134    -0.161705192
  32    H        5.107048412    -0.844964285    -0.055461933
  33    H        5.151639612     0.326328217     1.271814780
  34    H        5.251465446     2.844244029    -0.659060057
  35    H        4.259326716     2.806176027     0.799579018
  36    H        3.516644569     3.136715998    -0.776934394


           Empirical Formula: C14 H18 N2 O2  =    36 atoms



      MOLECULAR POINT GROUP   :   C1  


                  EIGENVALUES  
 -33.60298 -32.55540 -31.27817 -31.20550 -30.02695 -28.64823 -27.85775 -26.20069
 -25.74891 -25.45064 -24.42357 -23.51540 -22.39810 -21.41290 -20.56012 -20.32881
 -19.15013 -18.47370 -18.07388 -17.81616 -17.04110 -16.85282 -15.93891 -15.81075
 -15.50729 -15.28639 -14.95081 -14.82057 -14.71479 -14.40669 -14.29761 -14.20982
 -13.86920 -13.73226 -13.49655 -13.47503 -12.88760 -12.68591 -12.48384 -12.21954
 -12.08245 -12.07030 -11.11421 -10.94092 -10.24078 -10.06804  -9.91099  -9.60111
   0.12936   0.14566   0.42255   0.51841   1.10152   1.45140   2.18814   2.31939
   2.44848   2.83462   3.02289   3.53482   3.71460   3.99077   4.03289   4.21429
   4.25905   4.46337   4.55318   4.61529   4.66699   4.78518   4.94109   4.96838
   5.05020   5.10083   5.24560   5.30190   5.39268   5.54089   5.55782   5.77703
   5.79350   5.86552   5.88360   5.91101   6.02474   6.06861   6.07824   6.19806
   6.38798   6.77938


              NET ATOMIC CHARGES AND DIPOLE CONTRIBUTIONS

  ATOM NO.   TYPE          CHARGE      No. of ELECS.   s-Pop       p-Pop       
    1          N          -0.517066        5.5171     1.50827     4.00880
    2          C          -0.011262        4.0113     1.10794     2.90332
    3          C           0.536678        3.4633     1.08912     2.37420
    4          N          -0.501184        5.5012     1.50093     4.00026
    5          C          -0.075357        4.0754     1.12169     2.95367
    6          C           0.553798        3.4462     1.08970     2.35650
    7          C           0.011972        3.9880     1.08413     2.90390
    8          C          -0.344523        4.3445     1.09439     3.25014
    9          C           0.078500        3.9215     1.08890     2.83260
   10          O          -0.527676        6.5277     1.85508     4.67260
   11          O          -0.523653        6.5237     1.85454     4.66912
   12          C          -0.220815        4.2208     1.10681     3.11400
   13          C          -0.099487        4.0995     1.10521     2.99428
   14          C          -0.180497        4.1805     1.10609     3.07440
   15          C          -0.098632        4.0986     1.10541     2.99323
   16          C          -0.216424        4.2164     1.10884     3.10758
   17          C          -0.503282        4.5033     1.08875     3.41453
   18          C          -0.508936        4.5089     1.08958     3.41936
   19          H           0.299210        0.7008     0.70079
   20          H           0.161630        0.8384     0.83837
   21          H           0.294984        0.7050     0.70502
   22          H           0.162567        0.8374     0.83743
   23          H           0.136633        0.8634     0.86337
   24          H           0.175343        0.8247     0.82466
   25          H           0.198195        0.8018     0.80180
   26          H           0.153393        0.8466     0.84661
   27          H           0.143470        0.8565     0.85653
   28          H           0.150217        0.8498     0.84978
   29          H           0.143976        0.8560     0.85602
   30          H           0.154948        0.8451     0.84505
   31          H           0.165617        0.8344     0.83438
   32          H           0.146671        0.8533     0.85333
   33          H           0.160058        0.8399     0.83994
   34          H           0.158983        0.8410     0.84102
   35          H           0.152453        0.8475     0.84755
   36          H           0.189499        0.8105     0.81050
 DIPOLE           X         Y         Z       TOTAL
 POINT-CHG.     0.262     0.851     1.984     2.175
 HYBRID         0.152    -0.271    -0.306     0.436
 SUM            0.414     0.579     1.678     1.823


          ATOMIC ORBITAL ELECTRON POPULATIONS

     Atom    s        px        py        pz   
    1  N   1.50827   1.18494   1.28776   1.53610
    2  C   1.10794   0.98274   0.86967   1.05091
    3  C   1.08912   0.82916   0.82720   0.71784
    4  N   1.50093   1.16415   1.11033   1.72578
    5  C   1.12169   1.02562   0.82614   1.10191
    6  C   1.08970   0.81247   0.78529   0.75875
    7  C   1.08413   0.88604   0.95050   1.06737
    8  C   1.09439   0.97501   1.11488   1.16025
    9  C   1.08890   0.92880   0.95012   0.95368
   10  O   1.85508   1.83859   1.27511   1.55890
   11  O   1.85454   1.82222   1.36635   1.48055
   12  C   1.10681   1.04352   1.02809   1.04239
   13  C   1.10521   0.96785   1.02026   1.00617
   14  C   1.10609   1.05358   1.01221   1.00861
   15  C   1.10541   1.02273   0.98207   0.98843
   16  C   1.10884   0.98675   1.06327   1.05757
   17  C   1.08875   1.11812   1.13256   1.16385
   18  C   1.08958   1.19506   1.04317   1.18113
   19  H   0.70079
   20  H   0.83837
   21  H   0.70502
   22  H   0.83743
   23  H   0.86337
   24  H   0.82466
   25  H   0.80180
   26  H   0.84661
   27  H   0.85653
   28  H   0.84978
   29  H   0.85602
   30  H   0.84505
   31  H   0.83438
   32  H   0.85333
   33  H   0.83994
   34  H   0.84102
   35  H   0.84755
   36  H   0.81050

 **********************
 *                    *
 * JOB ENDED NORMALLY *
 *                    *
 **********************



 TOTAL JOB TIME:             4.95 SECONDS

 == MOPAC DONE ==
