 *******************************************************************************
 ** Site#: 35412        For non-commercial use only    Version 20.225L 64BITS **
 *******************************************************************************
 ** Cite this program as: MOPAC2016, Version: 20.225L, James J. P. Stewart,   **
 ** Stewart Computational Chemistry, web: HTTP://OpenMOPAC.net. Days left: 364**
 *******************************************************************************
 **                                                                           **
 **                                MOPAC2016                                  **
 **                                                                           **
 *******************************************************************************

                              PM6 CALCULATION RESULTS

 *******************************************************************************
 *  CALCULATION DONE:                                Fri Aug 14 20:41:59 2020  *
 *  PM6        - The PM6 Hamiltonian to be used
 *  SINGLET    - SPIN STATE DEFINED AS A SINGLET
 *  OPT        - OPTIMIZE COORDINATES OF ALL ATOMS
 *
 *
 *
 *                 CHARGE ON SYSTEM = 0
 *
 *
 *
 *  PRECISE    - CRITERIA TO BE INCREASED BY 100 TIMES
 *  T=         - A TIME OF 172800.0 SECONDS REQUESTED
 *  DUMP=N     - RESTART FILE WRITTEN EVERY 7200.0 SECONDS REQUESTED
 *  AUX        - OUTPUT AUXILIARY INFORMATION
 *  PRTXYZ     - PRINT CARTESIAN COORDINATES
 *  LARGE      - EXPANDED OUTPUT TO BE PRINTED
 *******************************************************************************
 AUX LARGE CHARGE=0 SINGLET  PM6  OPT PRECISE PRTXYZ
 CN286.pdb
 37
   ATOM   CHEMICAL          X               Y               Z
  NUMBER   SYMBOL      (ANGSTROMS)     (ANGSTROMS)     (ANGSTROMS)
 
     1       N          0.98100000  *  -0.82200000  *   0.46200000  *
     2       C          0.94900000  *   0.43700000  *  -0.30400000  *
     3       C          2.23300000  *   1.15800000  *  -0.14600000  *
     4       N          3.37900000  *   0.42900000  *   0.01600000  *
     5       C          3.38100000  *  -0.95900000  *   0.05500000  *
     6       C          2.12700000  *  -1.50100000  *   0.62700000  *
     7       C          4.70100000  *   0.95200000  *   0.22900000  *
     8       C          5.53800000  *  -0.33900000  *  -0.04200000  *
     9       C          4.69700000  *  -1.27200000  *   0.79000000  *
    10       C         -0.23400000  *   1.33700000  *   0.05200000  *
    11       O          2.26600000  *   2.39300000  *  -0.15000000  *
    12       O          2.16500000  *  -2.55400000  *   1.27600000  *
    13       C         -1.51700000  *   0.63400000  *  -0.20900000  *
    14       C         -2.78900000  *   1.09400000  *   0.05700000  *
    15       C         -3.65700000  *   0.11500000  *  -0.35800000  *
    16       N         -2.97800000  *  -0.91500000  *  -0.86000000  *
    17       C         -1.68100000  *  -0.62200000  *  -0.78200000  *
    18       C         -3.22700000  *   2.28100000  *   0.62000000  *
    19       C         -4.60500000  *   2.45700000  *   0.75500000  *
    20       C         -5.49600000  *   1.46400000  *   0.33300000  *
    21       C         -5.02800000  *   0.27600000  *  -0.23000000  *
    22       H          0.14000000  *  -1.17800000  *   0.86500000  *
    23       H          0.86500000  *   0.16500000  *  -1.36700000  *
    24       H          3.47500000  *  -1.30800000  *  -0.98600000  *
    25       H          4.96400000  *   1.80400000  *  -0.40700000  *
    26       H          4.78600000  *   1.23800000  *   1.28700000  *
    27       H          5.46500000  *  -0.64000000  *  -1.09800000  *
    28       H          6.58500000  *  -0.25300000  *   0.26700000  *
    29       H          4.66600000  *  -0.90800000  *   1.82600000  *
    30       H          4.97300000  *  -2.33300000  *   0.76000000  *
    31       H         -0.19900000  *   1.65800000  *   1.10300000  *
    32       H         -0.21300000  *   2.24800000  *  -0.55900000  *
    33       H         -0.89800000  *  -1.26100000  *  -1.11100000  *
    34       H         -2.54400000  *   3.02600000  *   0.93500000  *
    35       H         -4.98300000  *   3.35400000  *   1.18100000  *
    36       H         -6.54200000  *   1.61600000  *   0.44400000  *
    37       H         -5.70200000  *  -0.48100000  *  -0.55100000  *
 


          CARTESIAN COORDINATES 

    NO.       ATOM           X           Y           Z

     1         N          0.9810     -0.8220      0.4620
     2         C          0.9490      0.4370     -0.3040
     3         C          2.2330      1.1580     -0.1460
     4         N          3.3790      0.4290      0.0160
     5         C          3.3810     -0.9590      0.0550
     6         C          2.1270     -1.5010      0.6270
     7         C          4.7010      0.9520      0.2290
     8         C          5.5380     -0.3390     -0.0420
     9         C          4.6970     -1.2720      0.7900
    10         C         -0.2340      1.3370      0.0520
    11         O          2.2660      2.3930     -0.1500
    12         O          2.1650     -2.5540      1.2760
    13         C         -1.5170      0.6340     -0.2090
    14         C         -2.7890      1.0940      0.0570
    15         C         -3.6570      0.1150     -0.3580
    16         N         -2.9780     -0.9150     -0.8600
    17         C         -1.6810     -0.6220     -0.7820
    18         C         -3.2270      2.2810      0.6200
    19         C         -4.6050      2.4570      0.7550
    20         C         -5.4960      1.4640      0.3330
    21         C         -5.0280      0.2760     -0.2300
    22         H          0.1400     -1.1780      0.8650
    23         H          0.8650      0.1650     -1.3670
    24         H          3.4750     -1.3080     -0.9860
    25         H          4.9640      1.8040     -0.4070
    26         H          4.7860      1.2380      1.2870
    27         H          5.4650     -0.6400     -1.0980
    28         H          6.5850     -0.2530      0.2670
    29         H          4.6660     -0.9080      1.8260
    30         H          4.9730     -2.3330      0.7600
    31         H         -0.1990      1.6580      1.1030
    32         H         -0.2130      2.2480     -0.5590
    33         H         -0.8980     -1.2610     -1.1110
    34         H         -2.5440      3.0260      0.9350
    35         H         -4.9830      3.3540      1.1810
    36         H         -6.5420      1.6160      0.4440
    37         H         -5.7020     -0.4810     -0.5510

 General Reference for PM6:
 "Optimization of Parameters for Semiempirical Methods V: Modification of NDDO Approximations
 and Application to 70 Elements", J. J. P. Stewart, J. Mol. Mod., 13, 1173-1213 (2007)
 URL: https://link.springer.com/article/10.1007/s00894-007-0233-4

           Empirical Formula: C16 H16 N3 O2  =    37 atoms



      MOLECULAR POINT GROUP   :   C1  

          SINGLET SPECIFIED WITH ODD NUMBER OF ELECTRONS, CORRECT FAULT

 ******************************************************************************
 *                                                                            *
 *     Error and normal termination messages reported in this calculation     *
 *                                                                            *
 * SINGLET SPECIFIED WITH ODD NUMBER OF ELECTRONS, CORRECT FAULT              *
 * JOB ENDED NORMALLY                                                         *
 *                                                                            *
 ******************************************************************************



 TOTAL JOB TIME:             0.02 SECONDS

 == MOPAC DONE ==
