 *******************************************************************************
 ** Site#: 35412        For non-commercial use only    Version 20.225L 64BITS **
 *******************************************************************************
 ** Cite this program as: MOPAC2016, Version: 20.225L, James J. P. Stewart,   **
 ** Stewart Computational Chemistry, web: HTTP://OpenMOPAC.net. Days left: 364**
 *******************************************************************************
 **                                                                           **
 **                                MOPAC2016                                  **
 **                                                                           **
 *******************************************************************************

                              PM6 CALCULATION RESULTS

 *******************************************************************************
 *  CALCULATION DONE:                                Fri Aug 14 20:43:07 2020  *
 *  PM6        - The PM6 Hamiltonian to be used
 *  SINGLET    - SPIN STATE DEFINED AS A SINGLET
 *  OPT        - OPTIMIZE COORDINATES OF ALL ATOMS
 *
 *
 *
 *                 CHARGE ON SYSTEM = 0
 *
 *
 *
 *  PRECISE    - CRITERIA TO BE INCREASED BY 100 TIMES
 *  T=         - A TIME OF 172800.0 SECONDS REQUESTED
 *  DUMP=N     - RESTART FILE WRITTEN EVERY 7200.0 SECONDS REQUESTED
 *  AUX        - OUTPUT AUXILIARY INFORMATION
 *  PRTXYZ     - PRINT CARTESIAN COORDINATES
 *  LARGE      - EXPANDED OUTPUT TO BE PRINTED
 *******************************************************************************
 AUX LARGE CHARGE=0 SINGLET  PM6  OPT PRECISE PRTXYZ
 CN292.pdb
 39
   ATOM   CHEMICAL          X               Y               Z
  NUMBER   SYMBOL      (ANGSTROMS)     (ANGSTROMS)     (ANGSTROMS)
 
     1       N         -0.33400000  *   0.58400000  *  -0.63200000  *
     2       C         -0.57100000  *  -0.64400000  *   0.06000000  *
     3       C          0.61700000  *  -1.51100000  *  -0.17500000  *
     4       N          1.83900000  *  -0.99100000  *  -0.20000000  *
     5       C          2.02300000  *   0.41500000  *   0.01600000  *
     6       C          0.89100000  *   1.10300000  *  -0.66700000  *
     7       C          3.38200000  *   1.03000000  *  -0.44900000  *
     8       C         -1.87500000  *  -1.36800000  *  -0.35300000  *
     9       C         -3.17200000  *  -0.58500000  *  -0.10600000  *
    10       O          0.46300000  *  -2.71600000  *  -0.36900000  *
    11       O          1.10200000  *   2.15400000  *  -1.27300000  *
    12       C         -3.21000000  *   0.61600000  *   0.60400000  *
    13       C         -4.42300000  *   1.27200000  *   0.80200000  *
    14       C         -5.60100000  *   0.73600000  *   0.29500000  *
    15       C         -5.56700000  *  -0.45900000  *  -0.41200000  *
    16       C         -4.35700000  *  -1.11500000  *  -0.61000000  *
    17       C          4.64900000  *   0.46100000  *   0.27700000  *
    18       C          5.87000000  *   1.21800000  *  -0.25300000  *
    19       C          4.88900000  *  -1.03600000  *   0.01400000  *
    20       H         -1.07200000  *   1.04100000  *  -1.09700000  *
    21       H         -0.60500000  *  -0.40800000  *   1.13400000  *
    22       H          2.59700000  *  -1.57200000  *  -0.37900000  *
    23       H          1.89900000  *   0.58500000  *   1.09600000  *
    24       H          3.49100000  *   0.88500000  *  -1.53300000  *
    25       H          3.33800000  *   2.10400000  *  -0.23100000  *
    26       H         -1.84000000  *  -1.65000000  *  -1.41600000  *
    27       H         -1.95000000  *  -2.30700000  *   0.21100000  *
    28       H         -2.32600000  *   1.04000000  *   1.00000000  *
    29       H         -4.45100000  *   2.18800000  *   1.34500000  *
    30       H         -6.52900000  *   1.24000000  *   0.45000000  *
    31       H         -6.46900000  *  -0.87400000  *  -0.80000000  *
    32       H         -4.33800000  *  -2.03000000  *  -1.15000000  *
    33       H          4.55000000  *   0.63100000  *   1.35600000  *
    34       H          6.77100000  *   0.85500000  *   0.25800000  *
    35       H          5.74400000  *   2.29300000  *  -0.06100000  *
    36       H          5.96600000  *   1.04700000  *  -1.33500000  *
    37       H          5.80600000  *  -1.35600000  *   0.53400000  *
    38       H          5.00300000  *  -1.19800000  *  -1.06700000  *
    39       H          4.04200000  *  -1.62200000  *   0.38600000  *
 


          CARTESIAN COORDINATES 

    NO.       ATOM           X           Y           Z

     1         N         -0.3340      0.5840     -0.6320
     2         C         -0.5710     -0.6440      0.0600
     3         C          0.6170     -1.5110     -0.1750
     4         N          1.8390     -0.9910     -0.2000
     5         C          2.0230      0.4150      0.0160
     6         C          0.8910      1.1030     -0.6670
     7         C          3.3820      1.0300     -0.4490
     8         C         -1.8750     -1.3680     -0.3530
     9         C         -3.1720     -0.5850     -0.1060
    10         O          0.4630     -2.7160     -0.3690
    11         O          1.1020      2.1540     -1.2730
    12         C         -3.2100      0.6160      0.6040
    13         C         -4.4230      1.2720      0.8020
    14         C         -5.6010      0.7360      0.2950
    15         C         -5.5670     -0.4590     -0.4120
    16         C         -4.3570     -1.1150     -0.6100
    17         C          4.6490      0.4610      0.2770
    18         C          5.8700      1.2180     -0.2530
    19         C          4.8890     -1.0360      0.0140
    20         H         -1.0720      1.0410     -1.0970
    21         H         -0.6050     -0.4080      1.1340
    22         H          2.5970     -1.5720     -0.3790
    23         H          1.8990      0.5850      1.0960
    24         H          3.4910      0.8850     -1.5330
    25         H          3.3380      2.1040     -0.2310
    26         H         -1.8400     -1.6500     -1.4160
    27         H         -1.9500     -2.3070      0.2110
    28         H         -2.3260      1.0400      1.0000
    29         H         -4.4510      2.1880      1.3450
    30         H         -6.5290      1.2400      0.4500
    31         H         -6.4690     -0.8740     -0.8000
    32         H         -4.3380     -2.0300     -1.1500
    33         H          4.5500      0.6310      1.3560
    34         H          6.7710      0.8550      0.2580
    35         H          5.7440      2.2930     -0.0610
    36         H          5.9660      1.0470     -1.3350
    37         H          5.8060     -1.3560      0.5340
    38         H          5.0030     -1.1980     -1.0670
    39         H          4.0420     -1.6220      0.3860

 General Reference for PM6:
 "Optimization of Parameters for Semiempirical Methods V: Modification of NDDO Approximations
 and Application to 70 Elements", J. J. P. Stewart, J. Mol. Mod., 13, 1173-1213 (2007)
 URL: https://link.springer.com/article/10.1007/s00894-007-0233-4

           Empirical Formula: C15 H20 N2 O2  =    39 atoms



      MOLECULAR POINT GROUP   :   C1  


 SINGLET STATE CALCULATION


      RHF CALCULATION, NO. OF DOUBLY OCCUPIED LEVELS = 51


          Geometry optimization using L-BFGS
 CYCLE:     1 TIME:   0.047 TIME LEFT:  2.00D  GRAD.:   200.858 HEAT: -59.86871
 CYCLE:     2 TIME:   0.031 TIME LEFT:  2.00D  GRAD.:   196.893 HEAT: -60.26821
 CYCLE:     3 TIME:   0.031 TIME LEFT:  2.00D  GRAD.:    72.103 HEAT: -75.21739
 CYCLE:     4 TIME:   0.031 TIME LEFT:  2.00D  GRAD.:   196.937 HEAT: -60.26847
 CYCLE:     5 TIME:   0.031 TIME LEFT:  2.00D  GRAD.:    72.118 HEAT: -75.21778
 CYCLE:     6 TIME:   0.023 TIME LEFT:  2.00D  GRAD.:    48.587 HEAT: -78.14437
 CYCLE:     7 TIME:   0.023 TIME LEFT:  2.00D  GRAD.:    72.351 HEAT: -79.44566
 CYCLE:     8 TIME:   0.023 TIME LEFT:  2.00D  GRAD.:    26.276 HEAT: -80.26054
 CYCLE:     9 TIME:   0.031 TIME LEFT:  2.00D  GRAD.:    15.473 HEAT: -80.42023
 CYCLE:    10 TIME:   0.023 TIME LEFT:  2.00D  GRAD.:    10.656 HEAT: -80.59697
 CYCLE:    11 TIME:   0.023 TIME LEFT:  2.00D  GRAD.:    16.751 HEAT: -80.77088
 CYCLE:    12 TIME:   0.023 TIME LEFT:  2.00D  GRAD.:    19.078 HEAT: -80.86658
 CYCLE:    13 TIME:   0.023 TIME LEFT:  2.00D  GRAD.:     9.794 HEAT: -80.95850
 CYCLE:    14 TIME:   0.031 TIME LEFT:  2.00D  GRAD.:     9.368 HEAT: -81.04688
 CYCLE:    15 TIME:   0.016 TIME LEFT:  2.00D  GRAD.:    11.577 HEAT: -81.13607
 CYCLE:    16 TIME:   0.023 TIME LEFT:  2.00D  GRAD.:    12.131 HEAT: -81.31167
 CYCLE:    17 TIME:   0.031 TIME LEFT:  2.00D  GRAD.:    33.587 HEAT: -81.32469
 CYCLE:    18 TIME:   0.023 TIME LEFT:  2.00D  GRAD.:     8.269 HEAT: -81.55322
 CYCLE:    19 TIME:   0.023 TIME LEFT:  2.00D  GRAD.:     7.048 HEAT: -81.62090
 CYCLE:    20 TIME:   0.023 TIME LEFT:  2.00D  GRAD.:     9.073 HEAT: -81.74580
 CYCLE:    21 TIME:   0.031 TIME LEFT:  2.00D  GRAD.:    13.468 HEAT: -81.85139
 CYCLE:    22 TIME:   0.031 TIME LEFT:  2.00D  GRAD.:    12.542 HEAT: -81.95354
 CYCLE:    23 TIME:   0.023 TIME LEFT:  2.00D  GRAD.:    10.618 HEAT: -82.01474
 CYCLE:    24 TIME:   0.023 TIME LEFT:  2.00D  GRAD.:     8.413 HEAT: -82.05835
 CYCLE:    25 TIME:   0.031 TIME LEFT:  2.00D  GRAD.:     8.874 HEAT: -82.12530
 CYCLE:    26 TIME:   0.023 TIME LEFT:  2.00D  GRAD.:    18.691 HEAT: -82.24231
 CYCLE:    27 TIME:   0.023 TIME LEFT:  2.00D  GRAD.:    11.869 HEAT: -82.38119
 CYCLE:    28 TIME:   0.023 TIME LEFT:  2.00D  GRAD.:     9.445 HEAT: -82.51407
 CYCLE:    29 TIME:   0.023 TIME LEFT:  2.00D  GRAD.:    18.226 HEAT: -82.61218
 CYCLE:    30 TIME:   0.047 TIME LEFT:  2.00D  GRAD.:    10.260 HEAT: -82.70902
 CYCLE:    31 TIME:   0.062 TIME LEFT:  2.00D  GRAD.:     7.729 HEAT: -82.79655
 CYCLE:    32 TIME:   0.031 TIME LEFT:  2.00D  GRAD.:     9.072 HEAT: -82.87478
 CYCLE:    33 TIME:   0.023 TIME LEFT:  2.00D  GRAD.:    11.674 HEAT: -82.92023
 CYCLE:    34 TIME:   0.023 TIME LEFT:  2.00D  GRAD.:     6.898 HEAT: -82.97047
 CYCLE:    35 TIME:   0.023 TIME LEFT:  2.00D  GRAD.:     6.771 HEAT: -83.03843
 CYCLE:    36 TIME:   0.023 TIME LEFT:  2.00D  GRAD.:     7.334 HEAT: -83.09251
 CYCLE:    37 TIME:   0.023 TIME LEFT:  2.00D  GRAD.:    17.803 HEAT: -83.11421
 CYCLE:    38 TIME:   0.023 TIME LEFT:  2.00D  GRAD.:     4.480 HEAT: -83.19019
 CYCLE:    39 TIME:   0.031 TIME LEFT:  2.00D  GRAD.:     3.411 HEAT: -83.20624
 CYCLE:    40 TIME:   0.023 TIME LEFT:  2.00D  GRAD.:     5.072 HEAT: -83.23290
 CYCLE:    41 TIME:   0.023 TIME LEFT:  2.00D  GRAD.:     9.548 HEAT: -83.25406
 CYCLE:    42 TIME:   0.031 TIME LEFT:  2.00D  GRAD.:     3.991 HEAT: -83.27199
 CYCLE:    43 TIME:   0.023 TIME LEFT:  2.00D  GRAD.:     2.962 HEAT: -83.28577
 CYCLE:    44 TIME:   0.031 TIME LEFT:  2.00D  GRAD.:     3.353 HEAT: -83.29621
 CYCLE:    45 TIME:   0.023 TIME LEFT:  2.00D  GRAD.:     5.628 HEAT: -83.32204
 CYCLE:    46 TIME:   0.023 TIME LEFT:  2.00D  GRAD.:     8.100 HEAT: -83.34848
 CYCLE:    47 TIME:   0.031 TIME LEFT:  2.00D  GRAD.:     4.175 HEAT: -83.37056
 CYCLE:    48 TIME:   0.023 TIME LEFT:  2.00D  GRAD.:     4.598 HEAT: -83.38698
 CYCLE:    49 TIME:   0.031 TIME LEFT:  2.00D  GRAD.:     5.821 HEAT: -83.41182
 CYCLE:    50 TIME:   0.023 TIME LEFT:  2.00D  GRAD.:     9.202 HEAT: -83.44055
 CYCLE:    51 TIME:   0.023 TIME LEFT:  2.00D  GRAD.:     5.903 HEAT: -83.47684
 CYCLE:    52 TIME:   0.031 TIME LEFT:  2.00D  GRAD.:     6.639 HEAT: -83.50016
 CYCLE:    53 TIME:   0.023 TIME LEFT:  2.00D  GRAD.:     5.301 HEAT: -83.52170
 CYCLE:    54 TIME:   0.031 TIME LEFT:  2.00D  GRAD.:     4.797 HEAT: -83.54092
 CYCLE:    55 TIME:   0.023 TIME LEFT:  2.00D  GRAD.:     4.517 HEAT: -83.55920
 CYCLE:    56 TIME:   0.023 TIME LEFT:  2.00D  GRAD.:     9.686 HEAT: -83.56306
 CYCLE:    57 TIME:   0.023 TIME LEFT:  2.00D  GRAD.:     3.421 HEAT: -83.58383
 CYCLE:    58 TIME:   0.023 TIME LEFT:  2.00D  GRAD.:     2.990 HEAT: -83.59045
 CYCLE:    59 TIME:   0.031 TIME LEFT:  2.00D  GRAD.:     3.415 HEAT: -83.60555
 CYCLE:    60 TIME:   0.023 TIME LEFT:  2.00D  GRAD.:     6.203 HEAT: -83.62154
 CYCLE:    61 TIME:   0.023 TIME LEFT:  2.00D  GRAD.:     3.904 HEAT: -83.63481
 CYCLE:    62 TIME:   0.031 TIME LEFT:  2.00D  GRAD.:     2.657 HEAT: -83.64340
 CYCLE:    63 TIME:   0.023 TIME LEFT:  2.00D  GRAD.:     3.194 HEAT: -83.65006
 CYCLE:    64 TIME:   0.023 TIME LEFT:  2.00D  GRAD.:     2.938 HEAT: -83.65865
 CYCLE:    65 TIME:   0.023 TIME LEFT:  2.00D  GRAD.:     2.831 HEAT: -83.66748
 CYCLE:    66 TIME:   0.023 TIME LEFT:  2.00D  GRAD.:     3.486 HEAT: -83.67233
 CYCLE:    67 TIME:   0.031 TIME LEFT:  2.00D  GRAD.:     2.117 HEAT: -83.67675
 CYCLE:    68 TIME:   0.023 TIME LEFT:  2.00D  GRAD.:     1.736 HEAT: -83.68057
 CYCLE:    69 TIME:   0.047 TIME LEFT:  2.00D  GRAD.:     2.241 HEAT: -83.68368
 CYCLE:    70 TIME:   0.055 TIME LEFT:  2.00D  GRAD.:     3.964 HEAT: -83.68463
 CYCLE:    71 TIME:   0.023 TIME LEFT:  2.00D  GRAD.:     1.989 HEAT: -83.68910
 CYCLE:    72 TIME:   0.031 TIME LEFT:  2.00D  GRAD.:     1.895 HEAT: -83.69293
 CYCLE:    73 TIME:   0.031 TIME LEFT:  2.00D  GRAD.:     2.808 HEAT: -83.69801
 CYCLE:    74 TIME:   0.023 TIME LEFT:  2.00D  GRAD.:     4.110 HEAT: -83.70402
 CYCLE:    75 TIME:   0.023 TIME LEFT:  2.00D  GRAD.:     2.617 HEAT: -83.71058
 CYCLE:    76 TIME:   0.031 TIME LEFT:  2.00D  GRAD.:     2.452 HEAT: -83.71875
 CYCLE:    77 TIME:   0.023 TIME LEFT:  2.00D  GRAD.:     2.724 HEAT: -83.72616
 CYCLE:    78 TIME:   0.031 TIME LEFT:  2.00D  GRAD.:     7.191 HEAT: -83.72829
 CYCLE:    79 TIME:   0.023 TIME LEFT:  2.00D  GRAD.:     2.130 HEAT: -83.73730
 CYCLE:    80 TIME:   0.031 TIME LEFT:  2.00D  GRAD.:     1.950 HEAT: -83.74076
 CYCLE:    81 TIME:   0.023 TIME LEFT:  2.00D  GRAD.:     2.393 HEAT: -83.74690
 CYCLE:    82 TIME:   0.031 TIME LEFT:  2.00D  GRAD.:     3.150 HEAT: -83.75657
 CYCLE:    83 TIME:   0.023 TIME LEFT:  2.00D  GRAD.:     5.253 HEAT: -83.76316
 CYCLE:    84 TIME:   0.023 TIME LEFT:  2.00D  GRAD.:     1.767 HEAT: -83.77088
 CYCLE:    85 TIME:   0.023 TIME LEFT:  2.00D  GRAD.:     1.548 HEAT: -83.77371
 CYCLE:    86 TIME:   0.031 TIME LEFT:  2.00D  GRAD.:     1.463 HEAT: -83.77807
 CYCLE:    87 TIME:   0.023 TIME LEFT:  2.00D  GRAD.:     4.852 HEAT: -83.77891
 CYCLE:    88 TIME:   0.023 TIME LEFT:  2.00D  GRAD.:     1.558 HEAT: -83.78284
 CYCLE:    89 TIME:   0.023 TIME LEFT:  2.00D  GRAD.:     1.070 HEAT: -83.78351
 CYCLE:    90 TIME:   0.023 TIME LEFT:  2.00D  GRAD.:     1.255 HEAT: -83.78415
 CYCLE:    91 TIME:   0.023 TIME LEFT:  2.00D  GRAD.:     1.962 HEAT: -83.78495
 CYCLE:    92 TIME:   0.023 TIME LEFT:  2.00D  GRAD.:     1.538 HEAT: -83.78515
 CYCLE:    93 TIME:   0.023 TIME LEFT:  2.00D  GRAD.:     1.612 HEAT: -83.78559
 CYCLE:    94 TIME:   0.023 TIME LEFT:  2.00D  GRAD.:     1.630 HEAT: -83.78652
 CYCLE:    95 TIME:   0.023 TIME LEFT:  2.00D  GRAD.:     2.912 HEAT: -83.78664
 CYCLE:    96 TIME:   0.031 TIME LEFT:  2.00D  GRAD.:     1.792 HEAT: -83.78766
 CYCLE:    97 TIME:   0.023 TIME LEFT:  2.00D  GRAD.:     1.377 HEAT: -83.78908
 CYCLE:    98 TIME:   0.023 TIME LEFT:  2.00D  GRAD.:     1.650 HEAT: -83.79097
 CYCLE:    99 TIME:   0.031 TIME LEFT:  2.00D  GRAD.:     2.511 HEAT: -83.79402
 CYCLE:   100 TIME:   0.023 TIME LEFT:  2.00D  GRAD.:     1.605 HEAT: -83.79837
 CYCLE:   101 TIME:   0.023 TIME LEFT:  2.00D  GRAD.:     1.243 HEAT: -83.80234
 CYCLE:   102 TIME:   0.031 TIME LEFT:  2.00D  GRAD.:     1.526 HEAT: -83.80622
 CYCLE:   103 TIME:   0.023 TIME LEFT:  2.00D  GRAD.:     1.907 HEAT: -83.81076
 CYCLE:   104 TIME:   0.023 TIME LEFT:  2.00D  GRAD.:     2.380 HEAT: -83.81499
 CYCLE:   105 TIME:   0.031 TIME LEFT:  2.00D  GRAD.:     1.401 HEAT: -83.81782
 CYCLE:   106 TIME:   0.023 TIME LEFT:  2.00D  GRAD.:     1.387 HEAT: -83.81901
 CYCLE:   107 TIME:   0.031 TIME LEFT:  2.00D  GRAD.:     2.139 HEAT: -83.82006
 CYCLE:   108 TIME:   0.070 TIME LEFT:  2.00D  GRAD.:     1.372 HEAT: -83.82235
 CYCLE:   109 TIME:   0.031 TIME LEFT:  2.00D  GRAD.:     1.027 HEAT: -83.82418
 CYCLE:   110 TIME:   0.023 TIME LEFT:  2.00D  GRAD.:     1.122 HEAT: -83.82637
 CYCLE:   111 TIME:   0.023 TIME LEFT:  2.00D  GRAD.:     2.681 HEAT: -83.82719
 CYCLE:   112 TIME:   0.016 TIME LEFT:  2.00D  GRAD.:     1.112 HEAT: -83.82849
 CYCLE:   113 TIME:   0.023 TIME LEFT:  2.00D  GRAD.:     0.855 HEAT: -83.82906
 CYCLE:   114 TIME:   0.023 TIME LEFT:  2.00D  GRAD.:     1.083 HEAT: -83.82959
 CYCLE:   115 TIME:   0.031 TIME LEFT:  2.00D  GRAD.:     2.187 HEAT: -83.83082
 CYCLE:   116 TIME:   0.023 TIME LEFT:  2.00D  GRAD.:     1.289 HEAT: -83.83274
 CYCLE:   117 TIME:   0.031 TIME LEFT:  2.00D  GRAD.:     1.040 HEAT: -83.83488
 CYCLE:   118 TIME:   0.016 TIME LEFT:  2.00D  GRAD.:     1.277 HEAT: -83.83623
 CYCLE:   119 TIME:   0.031 TIME LEFT:  2.00D  GRAD.:     1.532 HEAT: -83.83821
 CYCLE:   120 TIME:   0.023 TIME LEFT:  2.00D  GRAD.:     1.553 HEAT: -83.83955
 CYCLE:   121 TIME:   0.031 TIME LEFT:  2.00D  GRAD.:     1.127 HEAT: -83.84042
 CYCLE:   122 TIME:   0.023 TIME LEFT:  2.00D  GRAD.:     1.132 HEAT: -83.84109
 CYCLE:   123 TIME:   0.023 TIME LEFT:  2.00D  GRAD.:     1.710 HEAT: -83.84193
 CYCLE:   124 TIME:   0.023 TIME LEFT:  2.00D  GRAD.:     1.057 HEAT: -83.84322
 CYCLE:   125 TIME:   0.023 TIME LEFT:  2.00D  GRAD.:     1.066 HEAT: -83.84501
 CYCLE:   126 TIME:   0.023 TIME LEFT:  2.00D  GRAD.:     1.588 HEAT: -83.84683
 CYCLE:   127 TIME:   0.023 TIME LEFT:  2.00D  GRAD.:     1.404 HEAT: -83.84895
 CYCLE:   128 TIME:   0.023 TIME LEFT:  2.00D  GRAD.:     1.140 HEAT: -83.85046
 CYCLE:   129 TIME:   0.023 TIME LEFT:  2.00D  GRAD.:     1.661 HEAT: -83.85115
 CYCLE:   130 TIME:   0.023 TIME LEFT:  2.00D  GRAD.:     0.943 HEAT: -83.85175
 CYCLE:   131 TIME:   0.031 TIME LEFT:  2.00D  GRAD.:     0.908 HEAT: -83.85225
 CYCLE:   132 TIME:   0.023 TIME LEFT:  2.00D  GRAD.:     1.199 HEAT: -83.85303
 CYCLE:   133 TIME:   0.023 TIME LEFT:  2.00D  GRAD.:     2.328 HEAT: -83.85316
 CYCLE:   134 TIME:   0.023 TIME LEFT:  2.00D  GRAD.:     0.779 HEAT: -83.85436
 CYCLE:   135 TIME:   0.023 TIME LEFT:  2.00D  GRAD.:     0.633 HEAT: -83.85491
 CYCLE:   136 TIME:   0.031 TIME LEFT:  2.00D  GRAD.:     0.901 HEAT: -83.85586
 CYCLE:   137 TIME:   0.031 TIME LEFT:  2.00D  GRAD.:     1.183 HEAT: -83.85711
 CYCLE:   138 TIME:   0.023 TIME LEFT:  2.00D  GRAD.:     2.414 HEAT: -83.85801
 CYCLE:   139 TIME:   0.023 TIME LEFT:  2.00D  GRAD.:     0.815 HEAT: -83.85899
 CYCLE:   140 TIME:   0.031 TIME LEFT:  2.00D  GRAD.:     0.645 HEAT: -83.85916
 CYCLE:   141 TIME:   0.023 TIME LEFT:  2.00D  GRAD.:     0.743 HEAT: -83.85939
 CYCLE:   142 TIME:   0.031 TIME LEFT:  2.00D  GRAD.:     1.252 HEAT: -83.85989
 CYCLE:   143 TIME:   0.023 TIME LEFT:  2.00D  GRAD.:     0.705 HEAT: -83.86067
 CYCLE:   144 TIME:   0.031 TIME LEFT:  2.00D  GRAD.:     0.555 HEAT: -83.86164
 CYCLE:   145 TIME:   0.023 TIME LEFT:  2.00D  GRAD.:     0.696 HEAT: -83.86265
 CYCLE:   146 TIME:   0.023 TIME LEFT:  2.00D  GRAD.:     1.638 HEAT: -83.86360
 CYCLE:   147 TIME:   0.031 TIME LEFT:  2.00D  GRAD.:     0.803 HEAT: -83.86434
 CYCLE:   148 TIME:   0.031 TIME LEFT:  2.00D  GRAD.:     0.696 HEAT: -83.86480
 CYCLE:   149 TIME:   0.062 TIME LEFT:  2.00D  GRAD.:     0.950 HEAT: -83.86534
 CYCLE:   150 TIME:   0.031 TIME LEFT:  2.00D  GRAD.:     1.378 HEAT: -83.86596
 CYCLE:   151 TIME:   0.023 TIME LEFT:  2.00D  GRAD.:     1.002 HEAT: -83.86632
 CYCLE:   152 TIME:   0.023 TIME LEFT:  2.00D  GRAD.:     0.712 HEAT: -83.86650
 CYCLE:   153 TIME:   0.023 TIME LEFT:  2.00D  GRAD.:     1.232 HEAT: -83.86639
 CYCLE:   154 TIME:   0.023 TIME LEFT:  2.00D  GRAD.:     1.170 HEAT: -83.86609
 CYCLE:   155 TIME:   0.031 TIME LEFT:  2.00D  GRAD.:     0.781 HEAT: -83.86603
 CYCLE:   156 TIME:   0.023 TIME LEFT:  2.00D  GRAD.:     0.692 HEAT: -83.86562
 CYCLE:   157 TIME:   0.031 TIME LEFT:  2.00D  GRAD.:     0.830 HEAT: -83.86529
 CYCLE:   158 TIME:   0.023 TIME LEFT:  2.00D  GRAD.:     1.234 HEAT: -83.86401
 CYCLE:   159 TIME:   0.031 TIME LEFT:  2.00D  GRAD.:     0.727 HEAT: -83.86447
 CYCLE:   160 TIME:   0.016 TIME LEFT:  2.00D  GRAD.:     0.651 HEAT: -83.86517
 CYCLE:   161 TIME:   0.031 TIME LEFT:  2.00D  GRAD.:     0.768 HEAT: -83.86637
 CYCLE:   162 TIME:   0.031 TIME LEFT:  2.00D  GRAD.:     1.341 HEAT: -83.86839
 CYCLE:   163 TIME:   0.031 TIME LEFT:  2.00D  GRAD.:     0.984 HEAT: -83.87043
 CYCLE:   164 TIME:   0.023 TIME LEFT:  2.00D  GRAD.:     0.952 HEAT: -83.87218
 CYCLE:   165 TIME:   0.023 TIME LEFT:  2.00D  GRAD.:     1.105 HEAT: -83.87356
 CYCLE:   166 TIME:   0.023 TIME LEFT:  2.00D  GRAD.:     1.011 HEAT: -83.87488
 CYCLE:   167 TIME:   0.031 TIME LEFT:  2.00D  GRAD.:     1.300 HEAT: -83.87754
 CYCLE:   168 TIME:   0.023 TIME LEFT:  2.00D  GRAD.:     3.538 HEAT: -83.87900
 CYCLE:   169 TIME:   0.023 TIME LEFT:  2.00D  GRAD.:     1.358 HEAT: -83.88106
 CYCLE:   170 TIME:   0.023 TIME LEFT:  2.00D  GRAD.:     1.238 HEAT: -83.88235
 CYCLE:   171 TIME:   0.031 TIME LEFT:  2.00D  GRAD.:     1.713 HEAT: -83.88388
 CYCLE:   172 TIME:   0.023 TIME LEFT:  2.00D  GRAD.:     1.913 HEAT: -83.88628
 CYCLE:   173 TIME:   0.023 TIME LEFT:  2.00D  GRAD.:     2.842 HEAT: -83.88843
 CYCLE:   174 TIME:   0.031 TIME LEFT:  2.00D  GRAD.:     2.343 HEAT: -83.89128
 CYCLE:   175 TIME:   0.023 TIME LEFT:  2.00D  GRAD.:     2.267 HEAT: -83.89337
 CYCLE:   176 TIME:   0.023 TIME LEFT:  2.00D  GRAD.:     3.841 HEAT: -83.89461
 CYCLE:   177 TIME:   0.031 TIME LEFT:  2.00D  GRAD.:     1.821 HEAT: -83.89833
 CYCLE:   178 TIME:   0.031 TIME LEFT:  2.00D  GRAD.:     2.829 HEAT: -83.89891
 CYCLE:   179 TIME:   0.031 TIME LEFT:  2.00D  GRAD.:     5.028 HEAT: -83.89914
 CYCLE:   180 TIME:   0.023 TIME LEFT:  2.00D  GRAD.:     2.051 HEAT: -83.90295
 CYCLE:   181 TIME:   0.023 TIME LEFT:  2.00D  GRAD.:     2.298 HEAT: -83.90256
 CYCLE:   182 TIME:   0.023 TIME LEFT:  2.00D  GRAD.:     1.166 HEAT: -83.90521
 CYCLE:   183 TIME:   0.031 TIME LEFT:  2.00D  GRAD.:     1.586 HEAT: -83.90782
 CYCLE:   184 TIME:   0.031 TIME LEFT:  2.00D  GRAD.:     2.100 HEAT: -83.91205
 CYCLE:   185 TIME:   0.031 TIME LEFT:  2.00D  GRAD.:     6.087 HEAT: -83.91564
 CYCLE:   186 TIME:   0.023 TIME LEFT:  2.00D  GRAD.:     2.212 HEAT: -83.92253
 CYCLE:   187 TIME:   0.031 TIME LEFT:  2.00D  GRAD.:     1.761 HEAT: -83.92419
 CYCLE:   188 TIME:   0.062 TIME LEFT:  2.00D  GRAD.:     3.090 HEAT: -83.92662
 CYCLE:   189 TIME:   0.023 TIME LEFT:  2.00D  GRAD.:     2.235 HEAT: -83.93054
 CYCLE:   190 TIME:   0.023 TIME LEFT:  2.00D  GRAD.:     3.023 HEAT: -83.93571
 CYCLE:   191 TIME:   0.023 TIME LEFT:  2.00D  GRAD.:     2.090 HEAT: -83.93894
 CYCLE:   192 TIME:   0.031 TIME LEFT:  2.00D  GRAD.:     1.860 HEAT: -83.94170
 CYCLE:   193 TIME:   0.023 TIME LEFT:  2.00D  GRAD.:     2.777 HEAT: -83.94802
 CYCLE:   194 TIME:   0.031 TIME LEFT:  2.00D  GRAD.:     3.322 HEAT: -83.95192
 CYCLE:   195 TIME:   0.023 TIME LEFT:  2.00D  GRAD.:     2.950 HEAT: -83.95583
 CYCLE:   196 TIME:   0.031 TIME LEFT:  2.00D  GRAD.:     6.096 HEAT: -83.95920
 CYCLE:   197 TIME:   0.023 TIME LEFT:  2.00D  GRAD.:     1.938 HEAT: -83.96543
 CYCLE:   198 TIME:   0.023 TIME LEFT:  2.00D  GRAD.:     1.651 HEAT: -83.96775
 CYCLE:   199 TIME:   0.031 TIME LEFT:  2.00D  GRAD.:     2.189 HEAT: -83.97061
 CYCLE:   200 TIME:   0.023 TIME LEFT:  2.00D  GRAD.:     2.382 HEAT: -83.97464
 CYCLE:   201 TIME:   0.023 TIME LEFT:  2.00D  GRAD.:     5.167 HEAT: -83.97627
 CYCLE:   202 TIME:   0.023 TIME LEFT:  2.00D  GRAD.:     2.063 HEAT: -83.98234
 CYCLE:   203 TIME:   0.023 TIME LEFT:  2.00D  GRAD.:     3.543 HEAT: -83.98379
 CYCLE:   204 TIME:   0.031 TIME LEFT:  2.00D  GRAD.:     2.748 HEAT: -83.98894
 CYCLE:   205 TIME:   0.031 TIME LEFT:  2.00D  GRAD.:     2.319 HEAT: -83.99806
 CYCLE:   206 TIME:   0.023 TIME LEFT:  2.00D  GRAD.:     5.131 HEAT: -84.00342
 CYCLE:   207 TIME:   0.023 TIME LEFT:  2.00D  GRAD.:     3.081 HEAT: -84.01012
 CYCLE:   208 TIME:   0.023 TIME LEFT:  2.00D  GRAD.:     3.003 HEAT: -84.01822
 CYCLE:   209 TIME:   0.023 TIME LEFT:  2.00D  GRAD.:     3.606 HEAT: -84.02465
 CYCLE:   210 TIME:   0.031 TIME LEFT:  2.00D  GRAD.:     4.724 HEAT: -84.03961
 CYCLE:   211 TIME:   0.023 TIME LEFT:  2.00D  GRAD.:     7.506 HEAT: -84.04866
 CYCLE:   212 TIME:   0.031 TIME LEFT:  2.00D  GRAD.:     2.892 HEAT: -84.06097
 CYCLE:   213 TIME:   0.023 TIME LEFT:  2.00D  GRAD.:     3.691 HEAT: -84.06438
 CYCLE:   214 TIME:   0.031 TIME LEFT:  2.00D  GRAD.:     4.247 HEAT: -84.07211
 CYCLE:   215 TIME:   0.023 TIME LEFT:  2.00D  GRAD.:     3.475 HEAT: -84.08145
 CYCLE:   216 TIME:   0.031 TIME LEFT:  2.00D  GRAD.:     3.335 HEAT: -84.09396
 CYCLE:   217 TIME:   0.023 TIME LEFT:  2.00D  GRAD.:     4.055 HEAT: -84.11149
 CYCLE:   218 TIME:   0.023 TIME LEFT:  2.00D  GRAD.:    10.434 HEAT: -84.11267
 CYCLE:   219 TIME:   0.023 TIME LEFT:  2.00D  GRAD.:     3.304 HEAT: -84.13449
 CYCLE:   220 TIME:   0.031 TIME LEFT:  2.00D  GRAD.:     3.830 HEAT: -84.14321
 CYCLE:   221 TIME:   0.023 TIME LEFT:  2.00D  GRAD.:     5.847 HEAT: -84.15346
 CYCLE:   222 TIME:   0.031 TIME LEFT:  2.00D  GRAD.:     4.722 HEAT: -84.16865
 CYCLE:   223 TIME:   0.023 TIME LEFT:  2.00D  GRAD.:     4.581 HEAT: -84.18336
 CYCLE:   224 TIME:   0.031 TIME LEFT:  2.00D  GRAD.:     5.383 HEAT: -84.19167
 CYCLE:   225 TIME:   0.023 TIME LEFT:  2.00D  GRAD.:     3.329 HEAT: -84.20380
 CYCLE:   226 TIME:   0.062 TIME LEFT:  2.00D  GRAD.:     3.165 HEAT: -84.21506
 CYCLE:   227 TIME:   0.031 TIME LEFT:  2.00D  GRAD.:     4.146 HEAT: -84.22247
 CYCLE:   228 TIME:   0.031 TIME LEFT:  2.00D  GRAD.:     4.279 HEAT: -84.23363
 CYCLE:   229 TIME:   0.023 TIME LEFT:  2.00D  GRAD.:     7.189 HEAT: -84.24313
 CYCLE:   230 TIME:   0.031 TIME LEFT:  2.00D  GRAD.:     4.261 HEAT: -84.25878
 CYCLE:   231 TIME:   0.023 TIME LEFT:  2.00D  GRAD.:     6.589 HEAT: -84.26762
 CYCLE:   232 TIME:   0.023 TIME LEFT:  2.00D  GRAD.:     4.450 HEAT: -84.28254
 CYCLE:   233 TIME:   0.023 TIME LEFT:  2.00D  GRAD.:     3.616 HEAT: -84.29803
 CYCLE:   234 TIME:   0.023 TIME LEFT:  2.00D  GRAD.:     3.676 HEAT: -84.31195
 CYCLE:   235 TIME:   0.031 TIME LEFT:  2.00D  GRAD.:     3.731 HEAT: -84.33278
 CYCLE:   236 TIME:   0.023 TIME LEFT:  2.00D  GRAD.:    10.820 HEAT: -84.34178
 CYCLE:   237 TIME:   0.023 TIME LEFT:  2.00D  GRAD.:     3.757 HEAT: -84.36253
 CYCLE:   238 TIME:   0.031 TIME LEFT:  2.00D  GRAD.:     7.656 HEAT: -84.35812
 CYCLE:   239 TIME:   0.016 TIME LEFT:  2.00D  GRAD.:     2.496 HEAT: -84.37666
 CYCLE:   240 TIME:   0.023 TIME LEFT:  2.00D  GRAD.:     2.180 HEAT: -84.38473
 CYCLE:   241 TIME:   0.031 TIME LEFT:  2.00D  GRAD.:     3.048 HEAT: -84.39838
 CYCLE:   242 TIME:   0.023 TIME LEFT:  2.00D  GRAD.:     7.151 HEAT: -84.40108
 CYCLE:   243 TIME:   0.031 TIME LEFT:  2.00D  GRAD.:     2.381 HEAT: -84.41058
 CYCLE:   244 TIME:   0.023 TIME LEFT:  2.00D  GRAD.:     2.020 HEAT: -84.41530
 CYCLE:   245 TIME:   0.031 TIME LEFT:  2.00D  GRAD.:     3.000 HEAT: -84.42518
 CYCLE:   246 TIME:   0.023 TIME LEFT:  2.00D  GRAD.:     5.431 HEAT: -84.43909
 CYCLE:   247 TIME:   0.023 TIME LEFT:  2.00D  GRAD.:     8.354 HEAT: -84.44835
 CYCLE:   248 TIME:   0.023 TIME LEFT:  2.00D  GRAD.:     2.869 HEAT: -84.46144
 CYCLE:   249 TIME:   0.031 TIME LEFT:  2.00D  GRAD.:     3.172 HEAT: -84.46871
 CYCLE:   250 TIME:   0.023 TIME LEFT:  2.00D  GRAD.:     3.311 HEAT: -84.47616
 CYCLE:   251 TIME:   0.031 TIME LEFT:  2.00D  GRAD.:     4.012 HEAT: -84.49308
 CYCLE:   252 TIME:   0.023 TIME LEFT:  2.00D  GRAD.:     7.686 HEAT: -84.50267
 CYCLE:   253 TIME:   0.023 TIME LEFT:  2.00D  GRAD.:     3.821 HEAT: -84.51568
 CYCLE:   254 TIME:   0.031 TIME LEFT:  2.00D  GRAD.:     4.625 HEAT: -84.52749
 CYCLE:   255 TIME:   0.023 TIME LEFT:  2.00D  GRAD.:     3.875 HEAT: -84.53623
 CYCLE:   256 TIME:   0.023 TIME LEFT:  2.00D  GRAD.:     7.197 HEAT: -84.54528
 CYCLE:   257 TIME:   0.023 TIME LEFT:  2.00D  GRAD.:     2.976 HEAT: -84.55924
 CYCLE:   258 TIME:   0.031 TIME LEFT:  2.00D  GRAD.:     2.853 HEAT: -84.56576
 CYCLE:   259 TIME:   0.031 TIME LEFT:  2.00D  GRAD.:     3.056 HEAT: -84.57502
 CYCLE:   260 TIME:   0.023 TIME LEFT:  2.00D  GRAD.:     6.382 HEAT: -84.58473
 CYCLE:   261 TIME:   0.023 TIME LEFT:  2.00D  GRAD.:     3.239 HEAT: -84.59714
 CYCLE:   262 TIME:   0.039 TIME LEFT:  2.00D  GRAD.:     3.129 HEAT: -84.60839
 CYCLE:   263 TIME:   0.023 TIME LEFT:  2.00D  GRAD.:     3.798 HEAT: -84.61873
 CYCLE:   264 TIME:   0.031 TIME LEFT:  2.00D  GRAD.:     4.725 HEAT: -84.63181
 CYCLE:   265 TIME:   0.047 TIME LEFT:  2.00D  GRAD.:     9.262 HEAT: -84.63548
 CYCLE:   266 TIME:   0.039 TIME LEFT:  2.00D  GRAD.:     2.747 HEAT: -84.65429
 CYCLE:   267 TIME:   0.023 TIME LEFT:  2.00D  GRAD.:     3.200 HEAT: -84.66124
 CYCLE:   268 TIME:   0.023 TIME LEFT:  2.00D  GRAD.:     4.170 HEAT: -84.67203
 CYCLE:   269 TIME:   0.023 TIME LEFT:  2.00D  GRAD.:     3.206 HEAT: -84.68020
 CYCLE:   270 TIME:   0.031 TIME LEFT:  2.00D  GRAD.:     2.573 HEAT: -84.68535
 CYCLE:   271 TIME:   0.023 TIME LEFT:  2.00D  GRAD.:     2.543 HEAT: -84.68977
 CYCLE:   272 TIME:   0.023 TIME LEFT:  2.00D  GRAD.:     2.918 HEAT: -84.69691
 CYCLE:   273 TIME:   0.031 TIME LEFT:  2.00D  GRAD.:     3.701 HEAT: -84.70261
 CYCLE:   274 TIME:   0.023 TIME LEFT:  2.00D  GRAD.:     2.277 HEAT: -84.70763
 CYCLE:   275 TIME:   0.031 TIME LEFT:  2.00D  GRAD.:     2.387 HEAT: -84.71252
 CYCLE:   276 TIME:   0.023 TIME LEFT:  2.00D  GRAD.:     2.504 HEAT: -84.71658
 CYCLE:   277 TIME:   0.023 TIME LEFT:  2.00D  GRAD.:     4.215 HEAT: -84.72513
 CYCLE:   278 TIME:   0.023 TIME LEFT:  2.00D  GRAD.:     2.711 HEAT: -84.73594
 CYCLE:   279 TIME:   0.031 TIME LEFT:  2.00D  GRAD.:     2.311 HEAT: -84.74733
 CYCLE:   280 TIME:   0.023 TIME LEFT:  2.00D  GRAD.:     3.125 HEAT: -84.75317
 CYCLE:   281 TIME:   0.023 TIME LEFT:  2.00D  GRAD.:     2.077 HEAT: -84.75842
 CYCLE:   282 TIME:   0.023 TIME LEFT:  2.00D  GRAD.:     1.792 HEAT: -84.76295
 CYCLE:   283 TIME:   0.023 TIME LEFT:  2.00D  GRAD.:     2.170 HEAT: -84.76654
 CYCLE:   284 TIME:   0.031 TIME LEFT:  2.00D  GRAD.:     1.689 HEAT: -84.77020
 CYCLE:   285 TIME:   0.023 TIME LEFT:  2.00D  GRAD.:     2.486 HEAT: -84.77257
 CYCLE:   286 TIME:   0.023 TIME LEFT:  2.00D  GRAD.:     2.108 HEAT: -84.77600
 CYCLE:   287 TIME:   0.031 TIME LEFT:  2.00D  GRAD.:     1.782 HEAT: -84.77896
 CYCLE:   288 TIME:   0.031 TIME LEFT:  2.00D  GRAD.:     2.262 HEAT: -84.78399
 CYCLE:   289 TIME:   0.023 TIME LEFT:  2.00D  GRAD.:     3.172 HEAT: -84.78723
 CYCLE:   290 TIME:   0.023 TIME LEFT:  2.00D  GRAD.:     1.888 HEAT: -84.79110
 CYCLE:   291 TIME:   0.031 TIME LEFT:  2.00D  GRAD.:     1.670 HEAT: -84.79424
 CYCLE:   292 TIME:   0.023 TIME LEFT:  2.00D  GRAD.:     1.801 HEAT: -84.79760
 CYCLE:   293 TIME:   0.031 TIME LEFT:  2.00D  GRAD.:     4.421 HEAT: -84.79794
 CYCLE:   294 TIME:   0.023 TIME LEFT:  2.00D  GRAD.:     1.411 HEAT: -84.80236
 CYCLE:   295 TIME:   0.023 TIME LEFT:  2.00D  GRAD.:     1.440 HEAT: -84.80383
 CYCLE:   296 TIME:   0.023 TIME LEFT:  2.00D  GRAD.:     1.744 HEAT: -84.80606
 CYCLE:   297 TIME:   0.023 TIME LEFT:  2.00D  GRAD.:     4.920 HEAT: -84.80493
 CYCLE:   298 TIME:   0.031 TIME LEFT:  2.00D  GRAD.:     1.542 HEAT: -84.80901
 CYCLE:   299 TIME:   0.023 TIME LEFT:  2.00D  GRAD.:     1.093 HEAT: -84.80995
 CYCLE:   300 TIME:   0.023 TIME LEFT:  2.00D  GRAD.:     1.391 HEAT: -84.81110
 CYCLE:   301 TIME:   0.031 TIME LEFT:  2.00D  GRAD.:     1.550 HEAT: -84.81278
 CYCLE:   302 TIME:   0.023 TIME LEFT:  2.00D  GRAD.:     4.841 HEAT: -84.81312
 CYCLE:   303 TIME:   0.031 TIME LEFT:  2.00D  GRAD.:     1.209 HEAT: -84.81773
 CYCLE:   304 TIME:   0.039 TIME LEFT:  2.00D  GRAD.:     0.908 HEAT: -84.81884
 CYCLE:   305 TIME:   0.039 TIME LEFT:  2.00D  GRAD.:     1.769 HEAT: -84.82079
 CYCLE:   306 TIME:   0.031 TIME LEFT:  2.00D  GRAD.:     1.917 HEAT: -84.82268
 CYCLE:   307 TIME:   0.031 TIME LEFT:  2.00D  GRAD.:     1.465 HEAT: -84.82549
 CYCLE:   308 TIME:   0.016 TIME LEFT:  2.00D  GRAD.:     2.411 HEAT: -84.82718
 CYCLE:   309 TIME:   0.031 TIME LEFT:  2.00D  GRAD.:     1.968 HEAT: -84.82946
 CYCLE:   310 TIME:   0.023 TIME LEFT:  2.00D  GRAD.:     2.072 HEAT: -84.83184
 CYCLE:   311 TIME:   0.031 TIME LEFT:  2.00D  GRAD.:     2.258 HEAT: -84.83510
 CYCLE:   312 TIME:   0.023 TIME LEFT:  2.00D  GRAD.:     3.366 HEAT: -84.83809
 CYCLE:   313 TIME:   0.023 TIME LEFT:  2.00D  GRAD.:     2.034 HEAT: -84.84320
 CYCLE:   314 TIME:   0.031 TIME LEFT:  2.00D  GRAD.:     2.024 HEAT: -84.84782
 CYCLE:   315 TIME:   0.031 TIME LEFT:  2.00D  GRAD.:     2.413 HEAT: -84.85317
 CYCLE:   316 TIME:   0.023 TIME LEFT:  2.00D  GRAD.:     4.873 HEAT: -84.85625
 CYCLE:   317 TIME:   0.023 TIME LEFT:  2.00D  GRAD.:     2.293 HEAT: -84.86202
 CYCLE:   318 TIME:   0.023 TIME LEFT:  2.00D  GRAD.:     1.976 HEAT: -84.86523
 CYCLE:   319 TIME:   0.023 TIME LEFT:  2.00D  GRAD.:     2.324 HEAT: -84.86980
 CYCLE:   320 TIME:   0.031 TIME LEFT:  2.00D  GRAD.:     7.011 HEAT: -84.87215
 CYCLE:   321 TIME:   0.016 TIME LEFT:  2.00D  GRAD.:     2.501 HEAT: -84.88106
 CYCLE:   322 TIME:   0.031 TIME LEFT:  2.00D  GRAD.:     1.635 HEAT: -84.88667
 CYCLE:   323 TIME:   0.023 TIME LEFT:  2.00D  GRAD.:     2.227 HEAT: -84.89310
 CYCLE:   324 TIME:   0.031 TIME LEFT:  2.00D  GRAD.:     2.598 HEAT: -84.90117
 CYCLE:   325 TIME:   0.023 TIME LEFT:  2.00D  GRAD.:     3.965 HEAT: -84.90725
 CYCLE:   326 TIME:   0.023 TIME LEFT:  2.00D  GRAD.:     2.176 HEAT: -84.91178
 CYCLE:   327 TIME:   0.031 TIME LEFT:  2.00D  GRAD.:     1.614 HEAT: -84.91333
 CYCLE:   328 TIME:   0.023 TIME LEFT:  2.00D  GRAD.:     1.666 HEAT: -84.91505
 CYCLE:   329 TIME:   0.023 TIME LEFT:  2.00D  GRAD.:     2.149 HEAT: -84.91776
 CYCLE:   330 TIME:   0.023 TIME LEFT:  2.00D  GRAD.:     5.309 HEAT: -84.91640
 CYCLE:   331 TIME:   0.031 TIME LEFT:  2.00D  GRAD.:     2.147 HEAT: -84.92219
 CYCLE:   332 TIME:   0.016 TIME LEFT:  2.00D  GRAD.:     1.602 HEAT: -84.92501
 CYCLE:   333 TIME:   0.023 TIME LEFT:  2.00D  GRAD.:     1.916 HEAT: -84.92727
 CYCLE:   334 TIME:   0.023 TIME LEFT:  2.00D  GRAD.:     2.462 HEAT: -84.93004
 CYCLE:   335 TIME:   0.031 TIME LEFT:  2.00D  GRAD.:     2.576 HEAT: -84.93154
 CYCLE:   336 TIME:   0.031 TIME LEFT:  2.00D  GRAD.:     1.776 HEAT: -84.93495
 CYCLE:   337 TIME:   0.016 TIME LEFT:  2.00D  GRAD.:     2.008 HEAT: -84.94025
 CYCLE:   338 TIME:   0.031 TIME LEFT:  2.00D  GRAD.:     2.507 HEAT: -84.94620
 CYCLE:   339 TIME:   0.023 TIME LEFT:  2.00D  GRAD.:     2.145 HEAT: -84.95236
 CYCLE:   340 TIME:   0.031 TIME LEFT:  2.00D  GRAD.:     1.489 HEAT: -84.95493
 CYCLE:   341 TIME:   0.023 TIME LEFT:  2.00D  GRAD.:     1.709 HEAT: -84.95699
 CYCLE:   342 TIME:   0.023 TIME LEFT:  2.00D  GRAD.:     2.391 HEAT: -84.96126
 CYCLE:   343 TIME:   0.031 TIME LEFT:  2.00D  GRAD.:     4.367 HEAT: -84.96417
 CYCLE:   344 TIME:   0.039 TIME LEFT:  2.00D  GRAD.:     1.732 HEAT: -84.96931
 CYCLE:   345 TIME:   0.039 TIME LEFT:  2.00D  GRAD.:     1.672 HEAT: -84.97220
 CYCLE:   346 TIME:   0.023 TIME LEFT:  2.00D  GRAD.:     2.187 HEAT: -84.97809
 CYCLE:   347 TIME:   0.023 TIME LEFT:  2.00D  GRAD.:     3.529 HEAT: -84.98949
 CYCLE:   348 TIME:   0.031 TIME LEFT:  2.00D  GRAD.:     3.302 HEAT: -84.99954
 CYCLE:   349 TIME:   0.023 TIME LEFT:  2.00D  GRAD.:     2.335 HEAT: -85.00817
 CYCLE:   350 TIME:   0.023 TIME LEFT:  2.00D  GRAD.:     2.463 HEAT: -85.01520
 CYCLE:   351 TIME:   0.023 TIME LEFT:  2.00D  GRAD.:     2.639 HEAT: -85.02066
 CYCLE:   352 TIME:   0.023 TIME LEFT:  2.00D  GRAD.:     2.314 HEAT: -85.02712
 CYCLE:   353 TIME:   0.023 TIME LEFT:  2.00D  GRAD.:     4.857 HEAT: -85.03644
 CYCLE:   354 TIME:   0.023 TIME LEFT:  2.00D  GRAD.:     1.819 HEAT: -85.04213
 CYCLE:   355 TIME:   0.031 TIME LEFT:  2.00D  GRAD.:     1.703 HEAT: -85.04394
 CYCLE:   356 TIME:   0.023 TIME LEFT:  2.00D  GRAD.:     1.913 HEAT: -85.05055
 CYCLE:   357 TIME:   0.023 TIME LEFT:  2.00D  GRAD.:     3.269 HEAT: -85.05574
 CYCLE:   358 TIME:   0.023 TIME LEFT:  2.00D  GRAD.:     1.558 HEAT: -85.06057
 CYCLE:   359 TIME:   0.023 TIME LEFT:  2.00D  GRAD.:     1.257 HEAT: -85.06312
 CYCLE:   360 TIME:   0.023 TIME LEFT:  2.00D  GRAD.:     2.128 HEAT: -85.06516
 CYCLE:   361 TIME:   0.031 TIME LEFT:  2.00D  GRAD.:     2.048 HEAT: -85.06701
 CYCLE:   362 TIME:   0.023 TIME LEFT:  2.00D  GRAD.:     1.680 HEAT: -85.06878
 CYCLE:   363 TIME:   0.031 TIME LEFT:  2.00D  GRAD.:     2.669 HEAT: -85.07126
 CYCLE:   364 TIME:   0.023 TIME LEFT:  2.00D  GRAD.:     1.982 HEAT: -85.07320
 CYCLE:   365 TIME:   0.031 TIME LEFT:  2.00D  GRAD.:     1.584 HEAT: -85.07554
 CYCLE:   366 TIME:   0.023 TIME LEFT:  2.00D  GRAD.:     2.389 HEAT: -85.07941
 CYCLE:   367 TIME:   0.023 TIME LEFT:  2.00D  GRAD.:     2.683 HEAT: -85.07978
 CYCLE:   368 TIME:   0.023 TIME LEFT:  2.00D  GRAD.:     1.120 HEAT: -85.08064
 CYCLE:   369 TIME:   0.031 TIME LEFT:  2.00D  GRAD.:     0.856 HEAT: -85.08070
 CYCLE:   370 TIME:   0.023 TIME LEFT:  2.00D  GRAD.:     1.191 HEAT: -85.08023
 CYCLE:   371 TIME:   0.023 TIME LEFT:  2.00D  GRAD.:     1.246 HEAT: -85.07910
 CYCLE:   372 TIME:   0.023 TIME LEFT:  2.00D  GRAD.:     1.972 HEAT: -85.07632
 CYCLE:   373 TIME:   0.023 TIME LEFT:  2.00D  GRAD.:     0.832 HEAT: -85.07793
 CYCLE:   374 TIME:   0.031 TIME LEFT:  2.00D  GRAD.:     0.814 HEAT: -85.07880
 CYCLE:   375 TIME:   0.023 TIME LEFT:  2.00D  GRAD.:     1.000 HEAT: -85.07927
 CYCLE:   376 TIME:   0.023 TIME LEFT:  2.00D  GRAD.:     2.894 HEAT: -85.07886
 CYCLE:   377 TIME:   0.023 TIME LEFT:  2.00D  GRAD.:     0.974 HEAT: -85.07970
 CYCLE:   378 TIME:   0.031 TIME LEFT:  2.00D  GRAD.:     0.641 HEAT: -85.07988


           HEAT OF FORMATION IS ESSENTIALLY STATIONARY


          CURRENT BEST VALUE OF HEAT OF FORMATION =    -85.080703
 
 AUX LARGE CHARGE=0 SINGLET  PM6  OPT PRECISE PRTXYZ
 CN292.pdb
 39
  N    -0.39445751 +1   0.61517839 +1  -0.51133261 +1
  C    -0.67095569 +1  -0.48090304 +1   0.44180299 +1
  C     0.55580486 +1  -1.38606451 +1   0.66093274 +1
  N     1.81264844 +1  -0.84335513 +1   0.44549795 +1
  C     2.06670404 +1   0.53668218 +1  -0.02199016 +1
  C     0.87047925 +1   1.10561015 +1  -0.80928662 +1
  C     3.33046503 +1   0.59560409 +1  -0.89681083 +1
  C    -1.84375758 +1  -1.34716344 +1  -0.06007084 +1
  C    -3.15283445 +1  -0.61320800 +1   0.00381839 +1
  O     0.45500685 +1  -2.53804216 +1   1.05176884 +1
  O     0.98763982 +1   1.99851358 +1  -1.63190982 +1
  C    -3.78899267 +1  -0.41354780 +1   1.23892722 +1
  C    -5.00418364 +1   0.27267700 +1   1.29596219 +1
  C    -5.59455163 +1   0.75853717 +1   0.12454351 +1
  C    -4.96584032 +1   0.55372058 +1  -1.10699764 +1
  C    -3.74570170 +1  -0.12531631 +1  -1.16998759 +1
  C     4.64050435 +1   0.45468294 +1  -0.09286154 +1
  C     5.76707323 +1   1.23265929 +1  -0.78402055 +1
  C     5.04406814 +1  -1.01605177 +1   0.07497297 +1
  H    -1.20115104 +1   0.99603046 +1  -1.01387549 +1
  H    -0.93560782 +1  -0.03170130 +1   1.44293517 +1
  H     2.64246649 +1  -1.44527211 +1   0.55585597 +1
  H     2.20058967 +1   1.20194117 +1   0.88088687 +1
  H     3.28453964 +1  -0.16521474 +1  -1.70040895 +1
  H     3.32187261 +1   1.56980888 +1  -1.44169148 +1
  H    -1.63693181 +1  -1.71302981 +1  -1.08814088 +1
  H    -1.89017597 +1  -2.27897059 +1   0.55631044 +1
  H    -3.33941635 +1  -0.79800814 +1   2.15280659 +1
  H    -5.49472597 +1   0.42821765 +1   2.25597148 +1
  H    -6.54125019 +1   1.29309404 +1   0.17219628 +1
  H    -5.42752065 +1   0.92229687 +1  -2.02222209 +1
  H    -3.26409870 +1  -0.27984572 +1  -2.13398396 +1
  H     4.48972044 +1   0.89578009 +1   0.92486096 +1
  H     6.71314660 +1   1.12714045 +1  -0.24106057 +1
  H     5.54284059 +1   2.30397869 +1  -0.84056326 +1
  H     5.94042673 +1   0.87920131 +1  -1.80675456 +1
  H     5.95382835 +1  -1.10974508 +1   0.68005350 +1
  H     5.25015239 +1  -1.49307987 +1  -0.89032573 +1
  H     4.26417623 +1  -1.60683395 +1   0.57419079 +1
 
 

 -------------------------------------------------------------------------------
 AUX LARGE CHARGE=0 SINGLET  PM6  OPT PRECISE PRTXYZ
 CN292.pdb
 39


     HERBERTS TEST WAS SATISFIED IN BFGS                      
     SCF FIELD WAS ACHIEVED                                   


                              PM6 CALCULATION
                                                       MOPAC2016 (Version: 20.225L)
                                                       Fri Aug 14 20:43:17 2020
                                                       No. of days remaining = 364




          FINAL HEAT OF FORMATION =        -85.08070 KCAL/MOL =    -355.97766 KJ/MOL


          TOTAL ENERGY            =      -3052.07817 EV
          ELECTRONIC ENERGY       =     -21524.18598 EV  POINT GROUP:     C1  
          CORE-CORE REPULSION     =      18472.10781 EV
          COSMO AREA              =        299.15 SQUARE ANGSTROMS
          COSMO VOLUME            =        326.91 CUBIC ANGSTROMS

          GRADIENT NORM           =          0.85646 = 0.13714 PER ATOM
          IONIZATION POTENTIAL    =          9.692237 EV
          HOMO LUMO ENERGIES (EV) =         -9.692  0.042
          NO. OF FILLED LEVELS    =         51
          MOLECULAR WEIGHT        =        260.3352

          MOLECULAR DIMENSIONS (Angstroms)

            Atom       Atom       Distance
            H    34    H    30    13.26188
            O    10    O    11     5.26816
            H    29    H    32     4.06792


          SCF CALCULATIONS        =        380
 
          WALL-CLOCK TIME         =         10.281 SECONDS
          COMPUTATION TIME        =         19.219 SECONDS




   ATOM   CHEMICAL          X               Y               Z
  NUMBER   SYMBOL      (ANGSTROMS)     (ANGSTROMS)     (ANGSTROMS)
 
     1       N         -0.39445751  *   0.61517839  *  -0.51133261  *
     2       C         -0.67095569  *  -0.48090304  *   0.44180299  *
     3       C          0.55580486  *  -1.38606451  *   0.66093274  *
     4       N          1.81264844  *  -0.84335513  *   0.44549795  *
     5       C          2.06670404  *   0.53668218  *  -0.02199016  *
     6       C          0.87047925  *   1.10561015  *  -0.80928662  *
     7       C          3.33046503  *   0.59560409  *  -0.89681083  *
     8       C         -1.84375758  *  -1.34716344  *  -0.06007084  *
     9       C         -3.15283445  *  -0.61320800  *   0.00381839  *
    10       O          0.45500685  *  -2.53804216  *   1.05176884  *
    11       O          0.98763982  *   1.99851358  *  -1.63190982  *
    12       C         -3.78899267  *  -0.41354780  *   1.23892722  *
    13       C         -5.00418364  *   0.27267700  *   1.29596219  *
    14       C         -5.59455163  *   0.75853717  *   0.12454351  *
    15       C         -4.96584032  *   0.55372058  *  -1.10699764  *
    16       C         -3.74570170  *  -0.12531631  *  -1.16998759  *
    17       C          4.64050435  *   0.45468294  *  -0.09286154  *
    18       C          5.76707323  *   1.23265929  *  -0.78402055  *
    19       C          5.04406814  *  -1.01605177  *   0.07497297  *
    20       H         -1.20115104  *   0.99603046  *  -1.01387549  *
    21       H         -0.93560782  *  -0.03170130  *   1.44293517  *
    22       H          2.64246649  *  -1.44527211  *   0.55585597  *
    23       H          2.20058967  *   1.20194117  *   0.88088687  *
    24       H          3.28453964  *  -0.16521474  *  -1.70040895  *
    25       H          3.32187261  *   1.56980888  *  -1.44169148  *
    26       H         -1.63693181  *  -1.71302981  *  -1.08814088  *
    27       H         -1.89017597  *  -2.27897059  *   0.55631044  *
    28       H         -3.33941635  *  -0.79800814  *   2.15280659  *
    29       H         -5.49472597  *   0.42821765  *   2.25597148  *
    30       H         -6.54125019  *   1.29309404  *   0.17219628  *
    31       H         -5.42752065  *   0.92229687  *  -2.02222209  *
    32       H         -3.26409870  *  -0.27984572  *  -2.13398396  *
    33       H          4.48972044  *   0.89578009  *   0.92486096  *
    34       H          6.71314660  *   1.12714045  *  -0.24106057  *
    35       H          5.54284059  *   2.30397869  *  -0.84056326  *
    36       H          5.94042673  *   0.87920131  *  -1.80675456  *
    37       H          5.95382835  *  -1.10974508  *   0.68005350  *
    38       H          5.25015239  *  -1.49307987  *  -0.89032573  *
    39       H          4.26417623  *  -1.60683395  *   0.57419079  *

                             CARTESIAN COORDINATES

   1    N       -0.394457513     0.615178392    -0.511332615
   2    C       -0.670955693    -0.480903035     0.441802990
   3    C        0.555804862    -1.386064509     0.660932735
   4    N        1.812648435    -0.843355132     0.445497946
   5    C        2.066704038     0.536682184    -0.021990160
   6    C        0.870479251     1.105610153    -0.809286617
   7    C        3.330465031     0.595604089    -0.896810828
   8    C       -1.843757576    -1.347163444    -0.060070835
   9    C       -3.152834449    -0.613207998     0.003818394
  10    O        0.455006855    -2.538042157     1.051768843
  11    O        0.987639821     1.998513585    -1.631909820
  12    C       -3.788992666    -0.413547800     1.238927216
  13    C       -5.004183639     0.272677003     1.295962188
  14    C       -5.594551627     0.758537165     0.124543509
  15    C       -4.965840320     0.553720580    -1.106997639
  16    C       -3.745701700    -0.125316314    -1.169987586
  17    C        4.640504351     0.454682939    -0.092861545
  18    C        5.767073234     1.232659291    -0.784020546
  19    C        5.044068138    -1.016051767     0.074972966
  20    H       -1.201151038     0.996030460    -1.013875489
  21    H       -0.935607817    -0.031701298     1.442935169
  22    H        2.642466494    -1.445272111     0.555855971
  23    H        2.200589671     1.201941166     0.880886870
  24    H        3.284539639    -0.165214738    -1.700408949
  25    H        3.321872612     1.569808884    -1.441691477
  26    H       -1.636931814    -1.713029808    -1.088140877
  27    H       -1.890175971    -2.278970588     0.556310442
  28    H       -3.339416355    -0.798008144     2.152806588
  29    H       -5.494725971     0.428217653     2.255971479
  30    H       -6.541250195     1.293094040     0.172196283
  31    H       -5.427520648     0.922296869    -2.022222088
  32    H       -3.264098699    -0.279845716    -2.133983964
  33    H        4.489720444     0.895780089     0.924860962
  34    H        6.713146600     1.127140450    -0.241060570
  35    H        5.542840587     2.303978687    -0.840563255
  36    H        5.940426728     0.879201315    -1.806754559
  37    H        5.953828351    -1.109745078     0.680053501
  38    H        5.250152386    -1.493079867    -0.890325727
  39    H        4.264176229    -1.606833952     0.574190786


           Empirical Formula: C15 H20 N2 O2  =    39 atoms



      MOLECULAR POINT GROUP   :   C1  


                  EIGENVALUES  
 -33.53372 -32.55371 -31.21887 -31.17166 -30.06070 -28.98511 -27.86303 -26.56530
 -26.19725 -25.73152 -24.60273 -23.67130 -23.18250 -21.77483 -21.61456 -20.64137
 -20.17318 -19.02432 -18.43066 -18.03819 -17.71246 -16.97911 -16.90507 -15.94177
 -15.79111 -15.66855 -15.34580 -15.00402 -14.93584 -14.84510 -14.63626 -14.48980
 -14.30434 -14.20067 -13.80602 -13.59729 -13.42027 -13.13567 -13.07384 -12.81907
 -12.27647 -12.22672 -12.09369 -12.05594 -11.81397 -11.07743 -10.83097 -10.28220
 -10.10869  -9.94611  -9.69224   0.04183   0.08687   0.52502   0.58366   1.05976
   1.41454   2.20190   2.34934   2.35611   3.00374   3.17342   3.55918   3.74269
   3.81197   4.02191   4.13014   4.22171   4.29129   4.48942   4.53897   4.59013
   4.70256   4.74323   4.92528   4.96958   5.03820   5.21584   5.26070   5.33177
   5.35658   5.47898   5.53847   5.61220   5.68367   5.82211   5.83968   5.84362
   5.94761   6.01585   6.03769   6.06802   6.12395   6.16250   6.58362   6.69389


              NET ATOMIC CHARGES AND DIPOLE CONTRIBUTIONS

  ATOM NO.   TYPE          CHARGE      No. of ELECS.   s-Pop       p-Pop       
    1          N          -0.506071        5.5061     1.50185     4.00422
    2          C          -0.009626        4.0096     1.10952     2.90011
    3          C           0.539815        3.4602     1.08647     2.37372
    4          N          -0.507777        5.5078     1.50575     4.00203
    5          C          -0.017153        4.0172     1.11081     2.90634
    6          C           0.541404        3.4586     1.08828     2.37031
    7          C          -0.350523        4.3505     1.10369     3.24683
    8          C          -0.340203        4.3402     1.09545     3.24475
    9          C           0.062900        3.9371     1.08857     2.84853
   10          O          -0.535249        6.5352     1.85619     4.67906
   11          O          -0.530373        6.5304     1.85583     4.67455
   12          C          -0.202608        4.2026     1.10907     3.09354
   13          C          -0.108087        4.1081     1.10581     3.00228
   14          C          -0.170855        4.1709     1.10662     3.06424
   15          C          -0.106159        4.1062     1.10570     3.00045
   16          C          -0.212973        4.2130     1.10969     3.10328
   17          C           0.035937        3.9641     1.07705     2.88702
   18          C          -0.503956        4.5040     1.08936     3.41460
   19          C          -0.500110        4.5001     1.09075     3.40936
   20          H           0.298766        0.7012     0.70123
   21          H           0.163924        0.8361     0.83608
   22          H           0.299051        0.7009     0.70095
   23          H           0.159421        0.8406     0.84058
   24          H           0.164040        0.8360     0.83596
   25          H           0.185735        0.8143     0.81427
   26          H           0.170502        0.8295     0.82950
   27          H           0.194044        0.8060     0.80596
   28          H           0.154747        0.8453     0.84525
   29          H           0.144955        0.8550     0.85504
   30          H           0.150001        0.8500     0.85000
   31          H           0.145299        0.8547     0.85470
   32          H           0.153999        0.8460     0.84600
   33          H           0.113112        0.8869     0.88689
   34          H           0.155046        0.8450     0.84495
   35          H           0.155281        0.8447     0.84472
   36          H           0.157073        0.8429     0.84293
   37          H           0.158053        0.8419     0.84195
   38          H           0.159020        0.8410     0.84098
   39          H           0.139597        0.8604     0.86040
 DIPOLE           X         Y         Z       TOTAL
 POINT-CHG.     0.526     1.001     1.307     1.728
 HYBRID         0.034    -0.353    -0.426     0.555
 SUM            0.560     0.647     0.880     1.227


          ATOMIC ORBITAL ELECTRON POPULATIONS

     Atom    s        px        py        pz   
    1  N   1.50185   1.16657   1.38785   1.44980
    2  C   1.10952   0.98465   0.91484   1.00061
    3  C   1.08647   0.82545   0.81840   0.72986
    4  N   1.50575   1.16206   1.17567   1.66430
    5  C   1.11081   0.99160   0.86573   1.04901
    6  C   1.08828   0.82086   0.77346   0.77600
    7  C   1.10369   0.97575   1.19942   1.07166
    8  C   1.09545   0.98134   1.08174   1.18167
    9  C   1.08857   0.93600   0.95359   0.95894
   10  O   1.85619   1.83845   1.30704   1.53357
   11  O   1.85583   1.83169   1.40659   1.43626
   12  C   1.10907   1.01223   1.03399   1.04732
   13  C   1.10581   0.98690   0.97407   1.04131
   14  C   1.10662   1.05531   1.02883   0.98010
   15  C   1.10570   0.98367   0.98191   1.03487
   16  C   1.10969   1.01960   1.03003   1.05365
   17  C   1.07705   0.91691   0.93921   1.03089
   18  C   1.08936   1.11074   1.14371   1.16016
   19  C   1.09075   1.16199   1.06854   1.17883
   20  H   0.70123
   21  H   0.83608
   22  H   0.70095
   23  H   0.84058
   24  H   0.83596
   25  H   0.81427
   26  H   0.82950
   27  H   0.80596
   28  H   0.84525
   29  H   0.85504
   30  H   0.85000
   31  H   0.85470
   32  H   0.84600
   33  H   0.88689
   34  H   0.84495
   35  H   0.84472
   36  H   0.84293
   37  H   0.84195
   38  H   0.84098
   39  H   0.86040

 **********************
 *                    *
 * JOB ENDED NORMALLY *
 *                    *
 **********************



 TOTAL JOB TIME:            10.34 SECONDS

 == MOPAC DONE ==
