 *******************************************************************************
 ** Site#: 35412        For non-commercial use only    Version 20.225L 64BITS **
 *******************************************************************************
 ** Cite this program as: MOPAC2016, Version: 20.225L, James J. P. Stewart,   **
 ** Stewart Computational Chemistry, web: HTTP://OpenMOPAC.net. Days left: 364**
 *******************************************************************************
 **                                                                           **
 **                                MOPAC2016                                  **
 **                                                                           **
 *******************************************************************************

                              PM6 CALCULATION RESULTS

 *******************************************************************************
 *  CALCULATION DONE:                                Fri Aug 14 20:43:03 2020  *
 *  PM6        - The PM6 Hamiltonian to be used
 *  SINGLET    - SPIN STATE DEFINED AS A SINGLET
 *  OPT        - OPTIMIZE COORDINATES OF ALL ATOMS
 *
 *
 *
 *                 CHARGE ON SYSTEM = 0
 *
 *
 *
 *  PRECISE    - CRITERIA TO BE INCREASED BY 100 TIMES
 *  T=         - A TIME OF 172800.0 SECONDS REQUESTED
 *  DUMP=N     - RESTART FILE WRITTEN EVERY 7200.0 SECONDS REQUESTED
 *  AUX        - OUTPUT AUXILIARY INFORMATION
 *  PRTXYZ     - PRINT CARTESIAN COORDINATES
 *  LARGE      - EXPANDED OUTPUT TO BE PRINTED
 *******************************************************************************
 AUX LARGE CHARGE=0 SINGLET  PM6  OPT PRECISE PRTXYZ
 CN291.pdb
 30
   ATOM   CHEMICAL          X               Y               Z
  NUMBER   SYMBOL      (ANGSTROMS)     (ANGSTROMS)     (ANGSTROMS)
 
     1       N         -1.07000000  *   0.85000000  *  -0.27700000  *
     2       C         -1.16000000  *  -0.57100000  *   0.13600000  *
     3       C          0.18000000  *  -1.26500000  *  -0.14800000  *
     4       N          1.32700000  *  -0.51200000  *  -0.12000000  *
     5       C          1.33400000  *   0.85200000  *   0.16500000  *
     6       C          0.09100000  *   1.53000000  *  -0.25700000  *
     7       C          2.64700000  *  -0.97500000  *  -0.44300000  *
     8       C          3.48700000  *   0.21800000  *   0.11200000  *
     9       C          2.64900000  *   1.31900000  *  -0.48300000  *
    10       C         -2.41000000  *  -1.27600000  *  -0.50000000  *
    11       C         -3.66600000  *  -0.48800000  *  -0.11200000  *
    12       O          0.25500000  *  -2.46500000  *  -0.44000000  *
    13       O          0.12800000  *   2.71700000  *  -0.60200000  *
    14       C         -2.59600000  *  -2.72800000  *   0.01600000  *
    15       H         -1.89700000  *   1.32400000  *  -0.57100000  *
    16       H         -1.30300000  *  -0.57200000  *   1.22700000  *
    17       H          1.43700000  *   0.95500000  *   1.25700000  *
    18       H          2.90700000  *  -1.94900000  *  -0.01600000  *
    19       H          2.73100000  *  -1.01600000  *  -1.53900000  *
    20       H          3.41700000  *   0.27100000  *   1.20800000  *
    21       H          4.53400000  *   0.20200000  *  -0.21200000  *
    22       H          2.61200000  *   1.20200000  *  -1.57600000  *
    23       H          2.93100000  *   2.34300000  *  -0.21200000  *
    24       H         -2.30600000  *  -1.28500000  *  -1.59500000  *
    25       H         -4.55000000  *  -0.96400000  *  -0.56100000  *
    26       H         -3.57700000  *   0.54500000  *  -0.47800000  *
    27       H         -3.76500000  *  -0.48100000  *   0.98100000  *
    28       H         -3.48700000  *  -3.16200000  *  -0.45100000  *
    29       H         -2.72600000  *  -2.71700000  *   1.10900000  *
    30       H         -1.72200000  *  -3.33800000  *  -0.24200000  *
 


          CARTESIAN COORDINATES 

    NO.       ATOM           X           Y           Z

     1         N         -1.0700      0.8500     -0.2770
     2         C         -1.1600     -0.5710      0.1360
     3         C          0.1800     -1.2650     -0.1480
     4         N          1.3270     -0.5120     -0.1200
     5         C          1.3340      0.8520      0.1650
     6         C          0.0910      1.5300     -0.2570
     7         C          2.6470     -0.9750     -0.4430
     8         C          3.4870      0.2180      0.1120
     9         C          2.6490      1.3190     -0.4830
    10         C         -2.4100     -1.2760     -0.5000
    11         C         -3.6660     -0.4880     -0.1120
    12         O          0.2550     -2.4650     -0.4400
    13         O          0.1280      2.7170     -0.6020
    14         C         -2.5960     -2.7280      0.0160
    15         H         -1.8970      1.3240     -0.5710
    16         H         -1.3030     -0.5720      1.2270
    17         H          1.4370      0.9550      1.2570
    18         H          2.9070     -1.9490     -0.0160
    19         H          2.7310     -1.0160     -1.5390
    20         H          3.4170      0.2710      1.2080
    21         H          4.5340      0.2020     -0.2120
    22         H          2.6120      1.2020     -1.5760
    23         H          2.9310      2.3430     -0.2120
    24         H         -2.3060     -1.2850     -1.5950
    25         H         -4.5500     -0.9640     -0.5610
    26         H         -3.5770      0.5450     -0.4780
    27         H         -3.7650     -0.4810      0.9810
    28         H         -3.4870     -3.1620     -0.4510
    29         H         -2.7260     -2.7170      1.1090
    30         H         -1.7220     -3.3380     -0.2420

 General Reference for PM6:
 "Optimization of Parameters for Semiempirical Methods V: Modification of NDDO Approximations
 and Application to 70 Elements", J. J. P. Stewart, J. Mol. Mod., 13, 1173-1213 (2007)
 URL: https://link.springer.com/article/10.1007/s00894-007-0233-4

           Empirical Formula: C10 H16 N2 O2  =    30 atoms



      MOLECULAR POINT GROUP   :   C1  


 SINGLET STATE CALCULATION


      RHF CALCULATION, NO. OF DOUBLY OCCUPIED LEVELS = 39


          Geometry optimization using EF

          DIAGONAL MATRIX USED AS START HESSIAN

 CYCLE:     1 TIME:   0.023 TIME LEFT:  2.00D  GRAD.:   196.755 HEAT: -71.73902
 CYCLE:     2 TIME:   0.047 TIME LEFT:  2.00D  GRAD.:   124.035 HEAT: -80.35872
 CYCLE:     3 TIME:   0.023 TIME LEFT:  2.00D  GRAD.:   137.125 HEAT: -83.98818
 CYCLE:     4 TIME:   0.016 TIME LEFT:  2.00D  GRAD.:   135.657 HEAT: -84.57082
 CYCLE:     5 TIME:   0.023 TIME LEFT:  2.00D  GRAD.:    87.235 HEAT: -88.45125
 CYCLE:     6 TIME:   0.031 TIME LEFT:  2.00D  GRAD.:    95.422 HEAT: -89.32216
 CYCLE:     7 TIME:   0.023 TIME LEFT:  2.00D  GRAD.:    87.412 HEAT: -90.02819
 CYCLE:     8 TIME:   0.023 TIME LEFT:  2.00D  GRAD.:    50.740 HEAT: -91.55017
 CYCLE:     9 TIME:   0.047 TIME LEFT:  2.00D  GRAD.:    37.507 HEAT: -92.35491
 CYCLE:    10 TIME:   0.016 TIME LEFT:  2.00D  GRAD.:    46.741 HEAT: -93.03094
 CYCLE:    11 TIME:   0.023 TIME LEFT:  2.00D  GRAD.:    39.562 HEAT: -94.19548
 CYCLE:    12 TIME:   0.031 TIME LEFT:  2.00D  GRAD.:    71.292 HEAT: -94.57481
 CYCLE:    13 TIME:   0.023 TIME LEFT:  2.00D  GRAD.:    67.502 HEAT: -95.54669
 CYCLE:    14 TIME:   0.023 TIME LEFT:  2.00D  GRAD.:    69.290 HEAT: -95.92528
 CYCLE:    15 TIME:   0.094 TIME LEFT:  2.00D  GRAD.:    60.292 HEAT: -96.59264
 CYCLE:    16 TIME:   0.039 TIME LEFT:  2.00D  GRAD.:    46.969 HEAT: -97.39915
 CYCLE:    17 TIME:   0.023 TIME LEFT:  2.00D  GRAD.:    44.666 HEAT: -97.63785
 CYCLE:    18 TIME:   0.023 TIME LEFT:  2.00D  GRAD.:    39.653 HEAT: -98.05288
 CYCLE:    19 TIME:   0.031 TIME LEFT:  2.00D  GRAD.:    45.475 HEAT: -98.21064
 CYCLE:    20 TIME:   0.031 TIME LEFT:  2.00D  GRAD.:    37.157 HEAT: -98.61635
 CYCLE:    21 TIME:   0.023 TIME LEFT:  2.00D  GRAD.:    44.551 HEAT: -98.65077
 CYCLE:    22 TIME:   0.039 TIME LEFT:  2.00D  GRAD.:    26.612 HEAT: -99.27940
 CYCLE:    23 TIME:   0.047 TIME LEFT:  2.00D  GRAD.:    29.341 HEAT: -99.41514
 CYCLE:    24 TIME:   0.125 TIME LEFT:  2.00D  GRAD.:    17.425 HEAT: -99.74324
 CYCLE:    25 TIME:   0.023 TIME LEFT:  2.00D  GRAD.:    23.709 HEAT: -99.90126
 CYCLE:    26 TIME:   0.023 TIME LEFT:  2.00D  GRAD.:    17.320 HEAT: -100.1836
 CYCLE:    27 TIME:   0.031 TIME LEFT:  2.00D  GRAD.:    25.996 HEAT: -100.3837
 CYCLE:    28 TIME:   0.016 TIME LEFT:  2.00D  GRAD.:    23.344 HEAT: -100.6134
 CYCLE:    29 TIME:   0.031 TIME LEFT:  2.00D  GRAD.:    34.158 HEAT: -100.6664
 CYCLE:    30 TIME:   0.016 TIME LEFT:  2.00D  GRAD.:    15.009 HEAT: -101.0928
 CYCLE:    31 TIME:   0.023 TIME LEFT:  2.00D  GRAD.:    17.923 HEAT: -101.1737
 CYCLE:    32 TIME:   0.023 TIME LEFT:  2.00D  GRAD.:    11.479 HEAT: -101.3628
 CYCLE:    33 TIME:   0.023 TIME LEFT:  2.00D  GRAD.:    13.203 HEAT: -101.4695
 CYCLE:    34 TIME:   0.031 TIME LEFT:  2.00D  GRAD.:     9.872 HEAT: -101.5902
 CYCLE:    35 TIME:   0.016 TIME LEFT:  2.00D  GRAD.:     9.184 HEAT: -101.7263
 CYCLE:    36 TIME:   0.023 TIME LEFT:  2.00D  GRAD.:     8.269 HEAT: -101.7857
 CYCLE:    37 TIME:   0.023 TIME LEFT:  2.00D  GRAD.:     9.189 HEAT: -101.8380
 CYCLE:    38 TIME:   0.023 TIME LEFT:  2.00D  GRAD.:     5.965 HEAT: -101.9058
 CYCLE:    39 TIME:   0.023 TIME LEFT:  2.00D  GRAD.:     7.215 HEAT: -101.9798
 CYCLE:    40 TIME:   0.016 TIME LEFT:  2.00D  GRAD.:     7.505 HEAT: -102.0014
 CYCLE:    41 TIME:   0.023 TIME LEFT:  2.00D  GRAD.:     5.347 HEAT: -102.0332
 CYCLE:    42 TIME:   0.023 TIME LEFT:  2.00D  GRAD.:     4.431 HEAT: -102.0627
 CYCLE:    43 TIME:   0.023 TIME LEFT:  2.00D  GRAD.:     3.397 HEAT: -102.0841
 CYCLE:    44 TIME:   0.023 TIME LEFT:  2.00D  GRAD.:     3.205 HEAT: -102.0972
 CYCLE:    45 TIME:   0.016 TIME LEFT:  2.00D  GRAD.:     3.953 HEAT: -102.1131
 CYCLE:    46 TIME:   0.023 TIME LEFT:  2.00D  GRAD.:     2.698 HEAT: -102.1232
 CYCLE:    47 TIME:   0.031 TIME LEFT:  2.00D  GRAD.:     2.410 HEAT: -102.1330
 CYCLE:    48 TIME:   0.016 TIME LEFT:  2.00D  GRAD.:     2.356 HEAT: -102.1464
 CYCLE:    49 TIME:   0.023 TIME LEFT:  2.00D  GRAD.:     2.730 HEAT: -102.1650
 CYCLE:    50 TIME:   0.023 TIME LEFT:  2.00D  GRAD.:     2.203 HEAT: -102.1739
 CYCLE:    51 TIME:   0.109 TIME LEFT:  2.00D  GRAD.:     1.893 HEAT: -102.1816
 CYCLE:    52 TIME:   0.023 TIME LEFT:  2.00D  GRAD.:     2.047 HEAT: -102.1928
 CYCLE:    53 TIME:   0.016 TIME LEFT:  2.00D  GRAD.:     2.240 HEAT: -102.1993
 CYCLE:    54 TIME:   0.023 TIME LEFT:  2.00D  GRAD.:     2.310 HEAT: -102.2102
 CYCLE:    55 TIME:   0.023 TIME LEFT:  2.00D  GRAD.:     2.950 HEAT: -102.2256
 CYCLE:    56 TIME:   0.016 TIME LEFT:  2.00D  GRAD.:     3.018 HEAT: -102.2382
 CYCLE:    57 TIME:   0.023 TIME LEFT:  2.00D  GRAD.:     2.658 HEAT: -102.2507
 CYCLE:    58 TIME:   0.016 TIME LEFT:  2.00D  GRAD.:     2.495 HEAT: -102.2616
 CYCLE:    59 TIME:   0.016 TIME LEFT:  2.00D  GRAD.:     2.344 HEAT: -102.2686
 CYCLE:    60 TIME:   0.016 TIME LEFT:  2.00D  GRAD.:     2.297 HEAT: -102.2740
 CYCLE:    61 TIME:   0.023 TIME LEFT:  2.00D  GRAD.:     2.130 HEAT: -102.2761
 CYCLE:    62 TIME:   0.016 TIME LEFT:  2.00D  GRAD.:     2.610 HEAT: -102.2824
 CYCLE:    63 TIME:   0.016 TIME LEFT:  2.00D  GRAD.:     2.112 HEAT: -102.2923
 CYCLE:    64 TIME:   0.016 TIME LEFT:  2.00D  GRAD.:     1.895 HEAT: -102.3025
 CYCLE:    65 TIME:   0.016 TIME LEFT:  2.00D  GRAD.:     1.700 HEAT: -102.3104
 CYCLE:    66 TIME:   0.016 TIME LEFT:  2.00D  GRAD.:     2.418 HEAT: -102.3196
 CYCLE:    67 TIME:   0.023 TIME LEFT:  2.00D  GRAD.:     2.481 HEAT: -102.3259
 CYCLE:    68 TIME:   0.016 TIME LEFT:  2.00D  GRAD.:     2.286 HEAT: -102.3313
 CYCLE:    69 TIME:   0.016 TIME LEFT:  2.00D  GRAD.:     1.718 HEAT: -102.3391
 CYCLE:    70 TIME:   0.016 TIME LEFT:  2.00D  GRAD.:     1.770 HEAT: -102.3463
 CYCLE:    71 TIME:   0.016 TIME LEFT:  2.00D  GRAD.:     2.046 HEAT: -102.3546
 CYCLE:    72 TIME:   0.023 TIME LEFT:  2.00D  GRAD.:     2.403 HEAT: -102.3685
 CYCLE:    73 TIME:   0.016 TIME LEFT:  2.00D  GRAD.:     3.049 HEAT: -102.3862
 CYCLE:    74 TIME:   0.016 TIME LEFT:  2.00D  GRAD.:     3.639 HEAT: -102.4069
 CYCLE:    75 TIME:   0.039 TIME LEFT:  2.00D  GRAD.:     4.121 HEAT: -102.4249
 CYCLE:    76 TIME:   0.016 TIME LEFT:  2.00D  GRAD.:     2.780 HEAT: -102.4493
 CYCLE:    77 TIME:   0.023 TIME LEFT:  2.00D  GRAD.:     2.759 HEAT: -102.4682
 CYCLE:    78 TIME:   0.016 TIME LEFT:  2.00D  GRAD.:     2.396 HEAT: -102.4858
 CYCLE:    79 TIME:   0.016 TIME LEFT:  2.00D  GRAD.:     2.147 HEAT: -102.4972
 CYCLE:    80 TIME:   0.016 TIME LEFT:  2.00D  GRAD.:     1.885 HEAT: -102.5067
 CYCLE:    81 TIME:   0.016 TIME LEFT:  2.00D  GRAD.:     2.162 HEAT: -102.5157
 CYCLE:    82 TIME:   0.016 TIME LEFT:  2.00D  GRAD.:     3.247 HEAT: -102.5227
 CYCLE:    83 TIME:   0.016 TIME LEFT:  2.00D  GRAD.:     2.605 HEAT: -102.5355
 CYCLE:    84 TIME:   0.023 TIME LEFT:  2.00D  GRAD.:     2.010 HEAT: -102.5453
 CYCLE:    85 TIME:   0.016 TIME LEFT:  2.00D  GRAD.:     2.024 HEAT: -102.5580
 CYCLE:    86 TIME:   0.016 TIME LEFT:  2.00D  GRAD.:     2.148 HEAT: -102.5648
 CYCLE:    87 TIME:   0.023 TIME LEFT:  2.00D  GRAD.:     2.088 HEAT: -102.5759
 CYCLE:    88 TIME:   0.016 TIME LEFT:  2.00D  GRAD.:     1.929 HEAT: -102.5825
 CYCLE:    89 TIME:   0.016 TIME LEFT:  2.00D  GRAD.:     2.065 HEAT: -102.5878
 CYCLE:    90 TIME:   0.016 TIME LEFT:  2.00D  GRAD.:     2.102 HEAT: -102.5911
 CYCLE:    91 TIME:   0.023 TIME LEFT:  2.00D  GRAD.:     2.312 HEAT: -102.5944
 CYCLE:    92 TIME:   0.016 TIME LEFT:  2.00D  GRAD.:     2.121 HEAT: -102.5996
 CYCLE:    93 TIME:   0.016 TIME LEFT:  2.00D  GRAD.:     2.132 HEAT: -102.6066
 CYCLE:    94 TIME:   0.016 TIME LEFT:  2.00D  GRAD.:     2.056 HEAT: -102.6127
 CYCLE:    95 TIME:   0.016 TIME LEFT:  2.00D  GRAD.:     1.813 HEAT: -102.6172
 CYCLE:    96 TIME:   0.016 TIME LEFT:  2.00D  GRAD.:     1.573 HEAT: -102.6206
 CYCLE:    97 TIME:   0.023 TIME LEFT:  2.00D  GRAD.:     1.523 HEAT: -102.6236
 CYCLE:    98 TIME:   0.016 TIME LEFT:  2.00D  GRAD.:     1.426 HEAT: -102.6258
 CYCLE:    99 TIME:   0.016 TIME LEFT:  2.00D  GRAD.:     1.150 HEAT: -102.6284
 CYCLE:   100 TIME:   0.016 TIME LEFT:  2.00D  GRAD.:     1.128 HEAT: -102.6302
 CYCLE:   101 TIME:   0.016 TIME LEFT:  2.00D  GRAD.:     1.032 HEAT: -102.6336
 CYCLE:   102 TIME:   0.016 TIME LEFT:  2.00D  GRAD.:     0.791 HEAT: -102.6367
 CYCLE:   103 TIME:   0.023 TIME LEFT:  2.00D  GRAD.:     0.640 HEAT: -102.6402
 CYCLE:   104 TIME:   0.016 TIME LEFT:  2.00D  GRAD.:     0.556 HEAT: -102.6418
 CYCLE:   105 TIME:   0.016 TIME LEFT:  2.00D  GRAD.:     0.489 HEAT: -102.6434
 CYCLE:   106 TIME:   0.086 TIME LEFT:  2.00D  GRAD.:     0.426 HEAT: -102.6442
 CYCLE:   107 TIME:   0.016 TIME LEFT:  2.00D  GRAD.:     0.424 HEAT: -102.6453
 CYCLE:   108 TIME:   0.016 TIME LEFT:  2.00D  GRAD.:     0.511 HEAT: -102.6463
 CYCLE:   109 TIME:   0.016 TIME LEFT:  2.00D  GRAD.:     0.602 HEAT: -102.6477
 CYCLE:   110 TIME:   0.016 TIME LEFT:  2.00D  GRAD.:     0.673 HEAT: -102.6491
 CYCLE:   111 TIME:   0.016 TIME LEFT:  2.00D  GRAD.:     0.769 HEAT: -102.6510
 CYCLE:   112 TIME:   0.016 TIME LEFT:  2.00D  GRAD.:     0.698 HEAT: -102.6516
 CYCLE:   113 TIME:   0.023 TIME LEFT:  2.00D  GRAD.:     0.940 HEAT: -102.6517
 CYCLE:   114 TIME:   0.016 TIME LEFT:  2.00D  GRAD.:     0.590 HEAT: -102.6524
 CYCLE:   115 TIME:   0.016 TIME LEFT:  2.00D  GRAD.:     0.430 HEAT: -102.6532
 CYCLE:   116 TIME:   0.016 TIME LEFT:  2.00D  GRAD.:     0.508 HEAT: -102.6537
 CYCLE:   117 TIME:   0.016 TIME LEFT:  2.00D  GRAD.:     0.515 HEAT: -102.6539
 CYCLE:   118 TIME:   0.023 TIME LEFT:  2.00D  GRAD.:     0.514 HEAT: -102.6539
 CYCLE:   119 TIME:   0.016 TIME LEFT:  2.00D  GRAD.:     0.457 HEAT: -102.6542
 CYCLE:   120 TIME:   0.023 TIME LEFT:  2.00D  GRAD.:     0.546 HEAT: -102.6542
 CYCLE:   121 TIME:   0.008 TIME LEFT:  2.00D  GRAD.:     0.362 HEAT: -102.6549
 CYCLE:   122 TIME:   0.023 TIME LEFT:  2.00D  GRAD.:     0.259 HEAT: -102.6554
 CYCLE:   123 TIME:   0.016 TIME LEFT:  2.00D  GRAD.:     0.245 HEAT: -102.6555
 CYCLE:   124 TIME:   0.016 TIME LEFT:  2.00D  GRAD.:     0.201 HEAT: -102.6549
 CYCLE:   125 TIME:   0.023 TIME LEFT:  2.00D  GRAD.:     0.136 HEAT: -102.6553
 CYCLE:   126 TIME:   0.016 TIME LEFT:  2.00D  GRAD.:     0.097 HEAT: -102.6555
 CYCLE:   127 TIME:   0.016 TIME LEFT:  2.00D  GRAD.:     0.093 HEAT: -102.6554
 CYCLE:   128 TIME:   0.016 TIME LEFT:  2.00D  GRAD.:     0.098 HEAT: -102.6553
 CYCLE:   129 TIME:   0.016 TIME LEFT:  2.00D  GRAD.:     0.098 HEAT: -102.6552
 CYCLE:   130 TIME:   0.016 TIME LEFT:  2.00D  GRAD.:     0.103 HEAT: -102.6550
 CYCLE:   131 TIME:   0.016 TIME LEFT:  2.00D  GRAD.:     0.107 HEAT: -102.6550
 CYCLE:   132 TIME:   0.023 TIME LEFT:  2.00D  GRAD.:     0.094 HEAT: -102.6551
 CYCLE:   133 TIME:   0.016 TIME LEFT:  2.00D  GRAD.:     0.059 HEAT: -102.6553
 CYCLE:   134 TIME:   0.016 TIME LEFT:  2.00D  GRAD.:     0.038 HEAT: -102.6553

     GRADIENT =  0.03823 IS LESS THAN CUTOFF =  0.05000



 -------------------------------------------------------------------------------
 AUX LARGE CHARGE=0 SINGLET  PM6  OPT PRECISE PRTXYZ
 CN291.pdb
 30


     GEOMETRY OPTIMISED USING EIGENVECTOR FOLLOWING (EF).     
     SCF FIELD WAS ACHIEVED                                   


                              PM6 CALCULATION
                                                       MOPAC2016 (Version: 20.225L)
                                                       Fri Aug 14 20:43:06 2020
                                                       No. of days remaining = 364




          FINAL HEAT OF FORMATION =       -102.65525 KCAL/MOL =    -429.50958 KJ/MOL


          TOTAL ENERGY            =      -2385.77019 EV
          ELECTRONIC ENERGY       =     -15120.50803 EV  POINT GROUP:     C1  
          CORE-CORE REPULSION     =      12734.73784 EV
          COSMO AREA              =        223.12 SQUARE ANGSTROMS
          COSMO VOLUME            =        241.38 CUBIC ANGSTROMS

          GRADIENT NORM           =          0.03823 = 0.00698 PER ATOM
          IONIZATION POTENTIAL    =          9.660869 EV
          HOMO LUMO ENERGIES (EV) =         -9.661  0.385
          NO. OF FILLED LEVELS    =         39
          MOLECULAR WEIGHT        =        196.2486

          MOLECULAR DIMENSIONS (Angstroms)

            Atom       Atom       Distance
            H    25    H    20     9.06526
            H    30    O    13     5.74189
            H    21    H    17     3.55092


          SCF CALCULATIONS        =        141
 
          WALL-CLOCK TIME         =          3.164 SECONDS
          COMPUTATION TIME        =          5.125 SECONDS




   ATOM   CHEMICAL          X               Y               Z
  NUMBER   SYMBOL      (ANGSTROMS)     (ANGSTROMS)     (ANGSTROMS)
 
     1       N         -1.04389402  *   0.81524781  *  -0.37470845  *
     2       C         -1.16886364  *  -0.57079189  *   0.13340119  *
     3       C          0.16125622  *  -1.30683595  *  -0.14656194  *
     4       N          1.31069893  *  -0.60923181  *   0.26301460  *
     5       C          1.28973746  *   0.86563991  *   0.48532457  *
     6       C          0.12862436  *   1.55399305  *  -0.25131434  *
     7       C          2.65739105  *  -1.04853245  *  -0.21836582  *
     8       C          3.37808235  *   0.22825548  *  -0.67935601  *
     9       C          2.65814809  *   1.39954921  *   0.00975401  *
    10       C         -2.38034912  *  -1.30491377  *  -0.51214758  *
    11       C         -3.65942577  *  -0.46920946  *  -0.39556307  *
    12       O          0.25050463  *  -2.43744938  *  -0.58680113  *
    13       O          0.18116156  *   2.69071316  *  -0.68703454  *
    14       C         -2.57722123  *  -2.66521227  *   0.16126452  *
    15       H         -1.84007856  *   1.21353600  *  -0.87400470  *
    16       H         -1.31468849  *  -0.54203745  *   1.24991934  *
    17       H          1.15124309  *   1.05153062  *   1.58440095  *
    18       H          3.18128842  *  -1.53597470  *   0.63178882  *
    19       H          2.55921018  *  -1.80701794  *  -1.02523743  *
    20       H          4.44947458  *   0.20350145  *  -0.41875405  *
    21       H          3.32801870  *   0.33316312  *  -1.77898408  *
    22       H          2.53333354  *   2.26247116  *  -0.67631242  *
    23       H          3.24202475  *   1.77535970  *   0.86830384  *
    24       H         -2.14975301  *  -1.47260801  *  -1.59533748  *
    25       H         -4.52439179  *  -1.03098458  *  -0.77189326  *
    26       H         -3.61095442  *   0.45806337  *  -0.97758763  *
    27       H         -3.88132080  *  -0.20076665  *   0.64383374  *
    28       H         -3.41168471  *  -3.21221015  *  -0.29222009  *
    29       H         -2.78627042  *  -2.57832830  *   1.23150071  *
    30       H         -1.68301658  *  -3.30035194  *   0.04297577  *

                             CARTESIAN COORDINATES

   1    N       -1.043894022     0.815247812    -0.374708446
   2    C       -1.168863644    -0.570791894     0.133401187
   3    C        0.161256219    -1.306835955    -0.146561937
   4    N        1.310698934    -0.609231814     0.263014595
   5    C        1.289737457     0.865639913     0.485324571
   6    C        0.128624360     1.553993053    -0.251314339
   7    C        2.657391048    -1.048532451    -0.218365823
   8    C        3.378082352     0.228255478    -0.679356013
   9    C        2.658148092     1.399549214     0.009754011
  10    C       -2.380349116    -1.304913775    -0.512147580
  11    C       -3.659425766    -0.469209464    -0.395563066
  12    O        0.250504633    -2.437449379    -0.586801134
  13    O        0.181161561     2.690713157    -0.687034538
  14    C       -2.577221232    -2.665212266     0.161264518
  15    H       -1.840078557     1.213535998    -0.874004703
  16    H       -1.314688491    -0.542037448     1.249919341
  17    H        1.151243093     1.051530617     1.584400951
  18    H        3.181288424    -1.535974697     0.631788820
  19    H        2.559210181    -1.807017937    -1.025237426
  20    H        4.449474576     0.203501447    -0.418754054
  21    H        3.328018695     0.333163121    -1.778984076
  22    H        2.533333539     2.262471161    -0.676312423
  23    H        3.242024752     1.775359701     0.868303842
  24    H       -2.149753007    -1.472608010    -1.595337481
  25    H       -4.524391793    -1.030984583    -0.771893256
  26    H       -3.610954424     0.458063369    -0.977587634
  27    H       -3.881320795    -0.200766645     0.643833741
  28    H       -3.411684711    -3.212210155    -0.292220090
  29    H       -2.786270416    -2.578328298     1.231500714
  30    H       -1.683016582    -3.300351941     0.042975770


           Empirical Formula: C10 H16 N2 O2  =    30 atoms



      MOLECULAR POINT GROUP   :   C1  


                  EIGENVALUES  
 -33.39716 -32.38177 -31.32502 -31.14181 -28.62224 -27.85547 -26.56311 -25.16773
 -24.42061 -22.55831 -22.40204 -20.57892 -20.19886 -18.67278 -18.43385 -17.94625
 -17.47109 -16.20773 -15.85148 -15.58987 -15.24391 -14.99730 -14.62893 -14.49345
 -14.22757 -13.98852 -13.64262 -13.53786 -13.38380 -13.01865 -12.79778 -12.57335
 -12.38980 -11.99337 -11.92036 -10.96558 -10.90879 -10.08976  -9.66087   0.38536
   0.67624   1.12659   1.61148   2.34356   2.42570   2.91821   3.06900   3.34003
   3.74466   3.80666   4.06068   4.15351   4.26602   4.64766   4.71367   4.75941
   4.81982   4.95059   5.09423   5.34638   5.38245   5.40386   5.61299   5.63585
   5.69791   5.83660   5.88377   5.93788   5.95781   6.05265   6.46308   6.81539


              NET ATOMIC CHARGES AND DIPOLE CONTRIBUTIONS

  ATOM NO.   TYPE          CHARGE      No. of ELECS.   s-Pop       p-Pop       
    1          N          -0.506117        5.5061     1.50178     4.00434
    2          C          -0.077309        4.0773     1.12263     2.95468
    3          C           0.542790        3.4572     1.09640     2.36081
    4          N          -0.405762        5.4058     1.55971     3.84605
    5          C          -0.037349        4.0373     1.11602     2.92133
    6          C           0.536805        3.4632     1.09004     2.37316
    7          C          -0.080557        4.0806     1.09718     2.98338
    8          C          -0.288909        4.2889     1.09474     3.19417
    9          C          -0.271781        4.2718     1.09676     3.17502
   10          C           0.010388        3.9896     1.08387     2.90574
   11          C          -0.502589        4.5026     1.08855     3.41404
   12          O          -0.521550        6.5216     1.85381     4.66774
   13          O          -0.528714        6.5287     1.85529     4.67342
   14          C          -0.506702        4.5067     1.08941     3.41729
   15          H           0.293192        0.7068     0.70681
   16          H           0.162971        0.8370     0.83703
   17          H           0.162581        0.8374     0.83742
   18          H           0.142806        0.8572     0.85719
   19          H           0.154751        0.8452     0.84525
   20          H           0.146331        0.8537     0.85367
   21          H           0.149369        0.8506     0.85063
   22          H           0.173345        0.8267     0.82665
   23          H           0.147602        0.8524     0.85240
   24          H           0.137270        0.8627     0.86273
   25          H           0.164190        0.8358     0.83581
   26          H           0.146946        0.8531     0.85305
   27          H           0.159559        0.8404     0.84044
   28          H           0.158339        0.8417     0.84166
   29          H           0.151850        0.8481     0.84815
   30          H           0.186254        0.8137     0.81375
 DIPOLE           X         Y         Z       TOTAL
 POINT-CHG.     0.296    -0.706     1.993     2.135
 HYBRID        -0.433     0.330    -0.470     0.719
 SUM           -0.136    -0.376     1.523     1.575


          ATOMIC ORBITAL ELECTRON POPULATIONS

     Atom    s        px        py        pz   
    1  N   1.50178   1.22821   1.18176   1.59436
    2  C   1.12263   1.01420   0.84635   1.09413
    3  C   1.09640   0.84310   0.81329   0.70441
    4  N   1.55971   1.11285   1.13400   1.59920
    5  C   1.11602   0.99510   0.83777   1.08847
    6  C   1.09004   0.81676   0.80302   0.75338
    7  C   1.09718   0.85604   1.01796   1.10938
    8  C   1.09474   1.09054   0.98112   1.12251
    9  C   1.09676   0.98595   1.05890   1.13017
   10  C   1.08387   0.90358   0.93467   1.06748
   11  C   1.08855   1.09492   1.13766   1.18146
   12  O   1.85381   1.84447   1.31909   1.50419
   13  O   1.85529   1.81119   1.31088   1.55135
   14  C   1.08941   1.19813   1.06866   1.15050
   15  H   0.70681
   16  H   0.83703
   17  H   0.83742
   18  H   0.85719
   19  H   0.84525
   20  H   0.85367
   21  H   0.85063
   22  H   0.82665
   23  H   0.85240
   24  H   0.86273
   25  H   0.83581
   26  H   0.85305
   27  H   0.84044
   28  H   0.84166
   29  H   0.84815
   30  H   0.81375

 **********************
 *                    *
 * JOB ENDED NORMALLY *
 *                    *
 **********************



 TOTAL JOB TIME:             3.20 SECONDS

 == MOPAC DONE ==
