 *******************************************************************************
 ** Site#: 35412        For non-commercial use only    Version 20.225L 64BITS **
 *******************************************************************************
 ** Cite this program as: MOPAC2016, Version: 20.225L, James J. P. Stewart,   **
 ** Stewart Computational Chemistry, web: HTTP://OpenMOPAC.net. Days left: 364**
 *******************************************************************************
 **                                                                           **
 **                                MOPAC2016                                  **
 **                                                                           **
 *******************************************************************************

                              PM6 CALCULATION RESULTS

 *******************************************************************************
 *  CALCULATION DONE:                                Fri Aug 14 20:42:59 2020  *
 *  PM6        - The PM6 Hamiltonian to be used
 *  SINGLET    - SPIN STATE DEFINED AS A SINGLET
 *  OPT        - OPTIMIZE COORDINATES OF ALL ATOMS
 *
 *
 *
 *                 CHARGE ON SYSTEM = 0
 *
 *
 *
 *  PRECISE    - CRITERIA TO BE INCREASED BY 100 TIMES
 *  T=         - A TIME OF 172800.0 SECONDS REQUESTED
 *  DUMP=N     - RESTART FILE WRITTEN EVERY 7200.0 SECONDS REQUESTED
 *  AUX        - OUTPUT AUXILIARY INFORMATION
 *  PRTXYZ     - PRINT CARTESIAN COORDINATES
 *  LARGE      - EXPANDED OUTPUT TO BE PRINTED
 *******************************************************************************
 AUX LARGE CHARGE=0 SINGLET  PM6  OPT PRECISE PRTXYZ
 CN290.pdb
 29
   ATOM   CHEMICAL          X               Y               Z
  NUMBER   SYMBOL      (ANGSTROMS)     (ANGSTROMS)     (ANGSTROMS)
 
     1       C          3.76000000  * -10.16700000  *   0.05800000  *
     2       C          3.85600000  * -11.55400000  *   0.05900000  *
     3       C          5.09000000  * -12.18000000  *   0.05900000  *
     4       C          6.23900000  * -11.41400000  *   0.05900000  *
     5       C          6.14800000  * -10.03300000  *   0.05900000  *
     6       C          4.91500000  *  -9.40000000  *   0.05800000  *
     7       O          7.42100000  * -12.02300000  *   0.06000000  *
     8       C          8.60500000  * -11.32600000  *   0.06000000  *
     9       C          8.62800000  *  -9.98400000  *   0.05900000  *
    10       C          7.33000000  *  -9.27200000  *   0.05900000  *
    11       O          7.25300000  *  -8.04100000  *   0.05800000  *
    12       C          9.94900000  *  -9.24800000  *   0.06000000  *
    13       C         10.88100000  *  -9.49400000  *  -0.94700000  *
    14       C         12.09800000  *  -8.82600000  *  -0.96100000  *
    15       C         12.40000000  *  -7.90200000  *   0.03100000  *
    16       C         11.47900000  *  -7.64900000  *   1.03900000  *
    17       C         10.26100000  *  -8.31800000  *   1.05200000  *
    18       O          2.75500000  * -12.30700000  *   0.05900000  *
    19       O         13.61600000  *  -7.23200000  *   0.02000000  *
    20       H          2.81600000  *  -9.69800000  *   0.05700000  *
    21       H          5.15500000  * -13.23400000  *   0.06000000  *
    22       H          4.85900000  *  -8.34100000  *   0.05700000  *
    23       H          9.51800000  * -11.86800000  *   0.06100000  *
    24       H         10.66900000  * -10.19400000  *  -1.71200000  *
    25       H         12.80000000  *  -9.02300000  *  -1.73500000  *
    26       H         11.70500000  *  -6.94100000  *   1.80200000  *
    27       H          9.56900000  *  -8.11400000  *   1.82700000  *
    28       H          1.99200000  * -11.72900000  *   0.05800000  *
    29       H         14.16300000  *  -7.52100000  *  -0.76000000  *
 


          CARTESIAN COORDINATES 

    NO.       ATOM           X           Y           Z

     1         C          3.7600    -10.1670      0.0580
     2         C          3.8560    -11.5540      0.0590
     3         C          5.0900    -12.1800      0.0590
     4         C          6.2390    -11.4140      0.0590
     5         C          6.1480    -10.0330      0.0590
     6         C          4.9150     -9.4000      0.0580
     7         O          7.4210    -12.0230      0.0600
     8         C          8.6050    -11.3260      0.0600
     9         C          8.6280     -9.9840      0.0590
    10         C          7.3300     -9.2720      0.0590
    11         O          7.2530     -8.0410      0.0580
    12         C          9.9490     -9.2480      0.0600
    13         C         10.8810     -9.4940     -0.9470
    14         C         12.0980     -8.8260     -0.9610
    15         C         12.4000     -7.9020      0.0310
    16         C         11.4790     -7.6490      1.0390
    17         C         10.2610     -8.3180      1.0520
    18         O          2.7550    -12.3070      0.0590
    19         O         13.6160     -7.2320      0.0200
    20         H          2.8160     -9.6980      0.0570
    21         H          5.1550    -13.2340      0.0600
    22         H          4.8590     -8.3410      0.0570
    23         H          9.5180    -11.8680      0.0610
    24         H         10.6690    -10.1940     -1.7120
    25         H         12.8000     -9.0230     -1.7350
    26         H         11.7050     -6.9410      1.8020
    27         H          9.5690     -8.1140      1.8270
    28         H          1.9920    -11.7290      0.0580
    29         H         14.1630     -7.5210     -0.7600

 General Reference for PM6:
 "Optimization of Parameters for Semiempirical Methods V: Modification of NDDO Approximations
 and Application to 70 Elements", J. J. P. Stewart, J. Mol. Mod., 13, 1173-1213 (2007)
 URL: https://link.springer.com/article/10.1007/s00894-007-0233-4

           Empirical Formula: C15 H10 O4  =    29 atoms



      MOLECULAR POINT GROUP   :   C1  


 SINGLET STATE CALCULATION


      RHF CALCULATION, NO. OF DOUBLY OCCUPIED LEVELS = 47


          Geometry optimization using EF

          DIAGONAL MATRIX USED AS START HESSIAN

 CYCLE:     1 TIME:   0.047 TIME LEFT:  2.00D  GRAD.:   173.342 HEAT: -80.55645
 CYCLE:     2 TIME:   0.047 TIME LEFT:  2.00D  GRAD.:   126.117 HEAT: -89.21300
 CYCLE:     3 TIME:   0.023 TIME LEFT:  2.00D  GRAD.:   159.759 HEAT: -91.17186
 CYCLE:     4 TIME:   0.023 TIME LEFT:  2.00D  GRAD.:   104.662 HEAT: -94.27362
 CYCLE:     5 TIME:   0.039 TIME LEFT:  2.00D  GRAD.:    53.115 HEAT: -96.87755
 CYCLE:     6 TIME:   0.039 TIME LEFT:  2.00D  GRAD.:    50.813 HEAT: -97.31654
 CYCLE:     7 TIME:   0.023 TIME LEFT:  2.00D  GRAD.:    51.907 HEAT: -97.49278
 CYCLE:     8 TIME:   0.109 TIME LEFT:  2.00D  GRAD.:    25.109 HEAT: -98.03922
 CYCLE:     9 TIME:   0.031 TIME LEFT:  2.00D  GRAD.:    15.841 HEAT: -98.20772
 CYCLE:    10 TIME:   0.023 TIME LEFT:  2.00D  GRAD.:    17.683 HEAT: -98.36123
 CYCLE:    11 TIME:   0.016 TIME LEFT:  2.00D  GRAD.:    16.180 HEAT: -98.57701
 CYCLE:    12 TIME:   0.023 TIME LEFT:  2.00D  GRAD.:    23.864 HEAT: -98.70317
 CYCLE:    13 TIME:   0.023 TIME LEFT:  2.00D  GRAD.:    22.736 HEAT: -98.84780
 CYCLE:    14 TIME:   0.055 TIME LEFT:  2.00D  GRAD.:    11.252 HEAT: -98.95481
 CYCLE:    15 TIME:   0.016 TIME LEFT:  2.00D  GRAD.:    12.291 HEAT: -99.00367
 CYCLE:    16 TIME:   0.016 TIME LEFT:  2.00D  GRAD.:     9.393 HEAT: -99.08091
 CYCLE:    17 TIME:   0.039 TIME LEFT:  2.00D  GRAD.:    14.572 HEAT: -99.09498
 CYCLE:    18 TIME:   0.023 TIME LEFT:  2.00D  GRAD.:    16.528 HEAT: -99.10874
 CYCLE:    19 TIME:   0.016 TIME LEFT:  2.00D  GRAD.:    16.431 HEAT: -99.11865
 CYCLE:    20 TIME:   0.031 TIME LEFT:  2.00D  GRAD.:     9.347 HEAT: -99.16678
 CYCLE:    21 TIME:   0.031 TIME LEFT:  2.00D  GRAD.:     5.372 HEAT: -99.18431
 CYCLE:    22 TIME:   0.031 TIME LEFT:  2.00D  GRAD.:     4.810 HEAT: -99.19039
 CYCLE:    23 TIME:   0.023 TIME LEFT:  2.00D  GRAD.:     3.650 HEAT: -99.19752
 CYCLE:    24 TIME:   0.016 TIME LEFT:  2.00D  GRAD.:     2.481 HEAT: -99.20370
 CYCLE:    25 TIME:   0.023 TIME LEFT:  2.00D  GRAD.:     3.687 HEAT: -99.20931
 CYCLE:    26 TIME:   0.016 TIME LEFT:  2.00D  GRAD.:     3.119 HEAT: -99.21547
 CYCLE:    27 TIME:   0.023 TIME LEFT:  2.00D  GRAD.:     2.760 HEAT: -99.21962
 CYCLE:    28 TIME:   0.016 TIME LEFT:  2.00D  GRAD.:     3.023 HEAT: -99.22279
 CYCLE:    29 TIME:   0.023 TIME LEFT:  2.00D  GRAD.:     2.082 HEAT: -99.22718
 CYCLE:    30 TIME:   0.016 TIME LEFT:  2.00D  GRAD.:     1.766 HEAT: -99.23026
 CYCLE:    31 TIME:   0.023 TIME LEFT:  2.00D  GRAD.:     1.524 HEAT: -99.23255
 CYCLE:    32 TIME:   0.023 TIME LEFT:  2.00D  GRAD.:     1.684 HEAT: -99.23460
 CYCLE:    33 TIME:   0.023 TIME LEFT:  2.00D  GRAD.:     1.625 HEAT: -99.23660
 CYCLE:    34 TIME:   0.023 TIME LEFT:  2.00D  GRAD.:     1.227 HEAT: -99.23910
 CYCLE:    35 TIME:   0.023 TIME LEFT:  2.00D  GRAD.:     1.731 HEAT: -99.24163
 CYCLE:    36 TIME:   0.016 TIME LEFT:  2.00D  GRAD.:     1.762 HEAT: -99.24483
 CYCLE:    37 TIME:   0.023 TIME LEFT:  2.00D  GRAD.:     1.706 HEAT: -99.24825
 CYCLE:    38 TIME:   0.023 TIME LEFT:  2.00D  GRAD.:     2.002 HEAT: -99.25173
 CYCLE:    39 TIME:   0.016 TIME LEFT:  2.00D  GRAD.:     1.801 HEAT: -99.25593
 CYCLE:    40 TIME:   0.023 TIME LEFT:  2.00D  GRAD.:     1.694 HEAT: -99.26129
 CYCLE:    41 TIME:   0.023 TIME LEFT:  2.00D  GRAD.:     1.874 HEAT: -99.26646
 CYCLE:    42 TIME:   0.023 TIME LEFT:  2.00D  GRAD.:     1.757 HEAT: -99.27050
 CYCLE:    43 TIME:   0.016 TIME LEFT:  2.00D  GRAD.:     1.880 HEAT: -99.27684
 CYCLE:    44 TIME:   0.016 TIME LEFT:  2.00D  GRAD.:     1.846 HEAT: -99.28534
 CYCLE:    45 TIME:   0.023 TIME LEFT:  2.00D  GRAD.:     1.758 HEAT: -99.29195
 CYCLE:    46 TIME:   0.023 TIME LEFT:  2.00D  GRAD.:     2.427 HEAT: -99.30082
 CYCLE:    47 TIME:   0.023 TIME LEFT:  2.00D  GRAD.:     3.462 HEAT: -99.31269
 CYCLE:    48 TIME:   0.016 TIME LEFT:  2.00D  GRAD.:     3.683 HEAT: -99.32736
 CYCLE:    49 TIME:   0.023 TIME LEFT:  2.00D  GRAD.:     3.085 HEAT: -99.34045
 CYCLE:    50 TIME:   0.023 TIME LEFT:  2.00D  GRAD.:     2.008 HEAT: -99.34901
 CYCLE:    51 TIME:   0.086 TIME LEFT:  2.00D  GRAD.:     1.955 HEAT: -99.35527
 CYCLE:    52 TIME:   0.016 TIME LEFT:  2.00D  GRAD.:     1.583 HEAT: -99.36162
 CYCLE:    53 TIME:   0.016 TIME LEFT:  2.00D  GRAD.:     1.433 HEAT: -99.36843
 CYCLE:    54 TIME:   0.023 TIME LEFT:  2.00D  GRAD.:     1.701 HEAT: -99.37305
 CYCLE:    55 TIME:   0.016 TIME LEFT:  2.00D  GRAD.:     1.602 HEAT: -99.37823
 CYCLE:    56 TIME:   0.023 TIME LEFT:  2.00D  GRAD.:     1.110 HEAT: -99.38200
 CYCLE:    57 TIME:   0.023 TIME LEFT:  2.00D  GRAD.:     1.119 HEAT: -99.38430
 CYCLE:    58 TIME:   0.016 TIME LEFT:  2.00D  GRAD.:     0.966 HEAT: -99.38604
 CYCLE:    59 TIME:   0.023 TIME LEFT:  2.00D  GRAD.:     1.000 HEAT: -99.38836
 CYCLE:    60 TIME:   0.016 TIME LEFT:  2.00D  GRAD.:     0.790 HEAT: -99.39077
 CYCLE:    61 TIME:   0.016 TIME LEFT:  2.00D  GRAD.:     0.631 HEAT: -99.39215
 CYCLE:    62 TIME:   0.031 TIME LEFT:  2.00D  GRAD.:     0.544 HEAT: -99.39296
 CYCLE:    63 TIME:   0.016 TIME LEFT:  2.00D  GRAD.:     0.526 HEAT: -99.39366
 CYCLE:    64 TIME:   0.023 TIME LEFT:  2.00D  GRAD.:     0.570 HEAT: -99.39451
 CYCLE:    65 TIME:   0.016 TIME LEFT:  2.00D  GRAD.:     0.582 HEAT: -99.39551
 CYCLE:    66 TIME:   0.023 TIME LEFT:  2.00D  GRAD.:     0.592 HEAT: -99.39647
 CYCLE:    67 TIME:   0.016 TIME LEFT:  2.00D  GRAD.:     0.584 HEAT: -99.39727
 CYCLE:    68 TIME:   0.031 TIME LEFT:  2.00D  GRAD.:     0.536 HEAT: -99.39801
 CYCLE:    69 TIME:   0.016 TIME LEFT:  2.00D  GRAD.:     0.562 HEAT: -99.39884
 CYCLE:    70 TIME:   0.023 TIME LEFT:  2.00D  GRAD.:     0.614 HEAT: -99.39990
 CYCLE:    71 TIME:   0.016 TIME LEFT:  2.00D  GRAD.:     0.687 HEAT: -99.40119
 CYCLE:    72 TIME:   0.023 TIME LEFT:  2.00D  GRAD.:     0.671 HEAT: -99.40248
 CYCLE:    73 TIME:   0.023 TIME LEFT:  2.00D  GRAD.:     0.665 HEAT: -99.40362
 CYCLE:    74 TIME:   0.016 TIME LEFT:  2.00D  GRAD.:     0.751 HEAT: -99.40512
 CYCLE:    75 TIME:   0.023 TIME LEFT:  2.00D  GRAD.:     0.891 HEAT: -99.40699
 CYCLE:    76 TIME:   0.016 TIME LEFT:  2.00D  GRAD.:     0.921 HEAT: -99.40921
 CYCLE:    77 TIME:   0.023 TIME LEFT:  2.00D  GRAD.:     0.820 HEAT: -99.41152
 CYCLE:    78 TIME:   0.023 TIME LEFT:  2.00D  GRAD.:     0.698 HEAT: -99.41243
 CYCLE:    79 TIME:   0.609 TIME LEFT:  2.00D  GRAD.:     0.719 HEAT: -99.41386
 CYCLE:    80 TIME:   0.047 TIME LEFT:  2.00D  GRAD.:     0.725 HEAT: -99.41477
 CYCLE:    81 TIME:   0.039 TIME LEFT:  2.00D  GRAD.:     0.633 HEAT: -99.41657
 CYCLE:    82 TIME:   0.047 TIME LEFT:  2.00D  GRAD.:     0.489 HEAT: -99.41752
 CYCLE:    83 TIME:   0.023 TIME LEFT:  2.00D  GRAD.:     0.371 HEAT: -99.41811
 CYCLE:    84 TIME:   0.023 TIME LEFT:  2.00D  GRAD.:     0.337 HEAT: -99.41850
 CYCLE:    85 TIME:   0.023 TIME LEFT:  2.00D  GRAD.:     0.308 HEAT: -99.41881
 CYCLE:    86 TIME:   0.023 TIME LEFT:  2.00D  GRAD.:     0.294 HEAT: -99.41904
 CYCLE:    87 TIME:   0.023 TIME LEFT:  2.00D  GRAD.:     0.329 HEAT: -99.41923
 CYCLE:    88 TIME:   0.023 TIME LEFT:  2.00D  GRAD.:     0.342 HEAT: -99.41950
 CYCLE:    89 TIME:   0.016 TIME LEFT:  2.00D  GRAD.:     0.340 HEAT: -99.41979
 CYCLE:    90 TIME:   0.023 TIME LEFT:  2.00D  GRAD.:     0.262 HEAT: -99.41999
 CYCLE:    91 TIME:   0.023 TIME LEFT:  2.00D  GRAD.:     0.194 HEAT: -99.42014
 CYCLE:    92 TIME:   0.016 TIME LEFT:  2.00D  GRAD.:     0.156 HEAT: -99.42022
 CYCLE:    93 TIME:   0.016 TIME LEFT:  2.00D  GRAD.:     0.117 HEAT: -99.42027
 CYCLE:    94 TIME:   0.023 TIME LEFT:  2.00D  GRAD.:     0.097 HEAT: -99.42030
 CYCLE:    95 TIME:   0.023 TIME LEFT:  2.00D  GRAD.:     0.094 HEAT: -99.42032
 CYCLE:    96 TIME:   0.023 TIME LEFT:  2.00D  GRAD.:     0.117 HEAT: -99.42034
 CYCLE:    97 TIME:   0.016 TIME LEFT:  2.00D  GRAD.:     0.127 HEAT: -99.42038
 CYCLE:    98 TIME:   0.023 TIME LEFT:  2.00D  GRAD.:     0.163 HEAT: -99.42044
 CYCLE:    99 TIME:   0.016 TIME LEFT:  2.00D  GRAD.:     0.123 HEAT: -99.42047
 CYCLE:   100 TIME:   0.016 TIME LEFT:  2.00D  GRAD.:     0.300 HEAT: -99.42043
 CYCLE:   101 TIME:   0.023 TIME LEFT:  2.00D  GRAD.:     0.102 HEAT: -99.42055
 CYCLE:   102 TIME:   0.016 TIME LEFT:  2.00D  GRAD.:     0.082 HEAT: -99.42057
 CYCLE:   103 TIME:   0.023 TIME LEFT:  2.00D  GRAD.:     0.146 HEAT: -99.42064
 CYCLE:   104 TIME:   0.023 TIME LEFT:  2.00D  GRAD.:     0.115 HEAT: -99.42067
 CYCLE:   105 TIME:   0.016 TIME LEFT:  2.00D  GRAD.:     0.125 HEAT: -99.42074
 CYCLE:   106 TIME:   0.023 TIME LEFT:  2.00D  GRAD.:     0.111 HEAT: -99.42077
 CYCLE:   107 TIME:   0.023 TIME LEFT:  2.00D  GRAD.:     0.154 HEAT: -99.42086
 CYCLE:   108 TIME:   0.023 TIME LEFT:  2.00D  GRAD.:     0.094 HEAT: -99.42089
 CYCLE:   109 TIME:   0.016 TIME LEFT:  2.00D  GRAD.:     0.075 HEAT: -99.42092
 CYCLE:   110 TIME:   0.023 TIME LEFT:  2.00D  GRAD.:     0.078 HEAT: -99.42095
 CYCLE:   111 TIME:   0.023 TIME LEFT:  2.00D  GRAD.:     0.064 HEAT: -99.42097
 CYCLE:   112 TIME:   0.016 TIME LEFT:  2.00D  GRAD.:     0.051 HEAT: -99.42098
 CYCLE:   113 TIME:   0.023 TIME LEFT:  2.00D  GRAD.:     0.039 HEAT: -99.42099

     GRADIENT =  0.03879 IS LESS THAN CUTOFF =  0.05000



 -------------------------------------------------------------------------------
 AUX LARGE CHARGE=0 SINGLET  PM6  OPT PRECISE PRTXYZ
 CN290.pdb
 29


     GEOMETRY OPTIMISED USING EIGENVECTOR FOLLOWING (EF).     
     SCF FIELD WAS ACHIEVED                                   


                              PM6 CALCULATION
                                                       MOPAC2016 (Version: 20.225L)
                                                       Fri Aug 14 20:43:02 2020
                                                       No. of days remaining = 364




          FINAL HEAT OF FORMATION =        -99.42099 KCAL/MOL =    -415.97741 KJ/MOL


          TOTAL ENERGY            =      -3137.39541 EV
          ELECTRONIC ENERGY       =     -19171.12177 EV  POINT GROUP:     C1  
          CORE-CORE REPULSION     =      16033.72637 EV
          COSMO AREA              =        263.55 SQUARE ANGSTROMS
          COSMO VOLUME            =        284.03 CUBIC ANGSTROMS

          GRADIENT NORM           =          0.03879 = 0.00720 PER ATOM
          IONIZATION POTENTIAL    =          8.827990 EV
          HOMO LUMO ENERGIES (EV) =         -8.828 -0.835
          NO. OF FILLED LEVELS    =         47
          MOLECULAR WEIGHT        =        254.2416

          MOLECULAR DIMENSIONS (Angstroms)

            Atom       Atom       Distance
            H    29    H    28    13.05335
            H    23    H    22     5.03759
            H    26    H    24     3.14575


          SCF CALCULATIONS        =        124
 
          WALL-CLOCK TIME         =          3.383 SECONDS
          COMPUTATION TIME        =          4.906 SECONDS




   ATOM   CHEMICAL          X               Y               Z
  NUMBER   SYMBOL      (ANGSTROMS)     (ANGSTROMS)     (ANGSTROMS)
 
     1       C          3.73548139  * -10.15296493  *   0.10797992  *
     2       C          3.85881040  * -11.55896351  *   0.01517233  *
     3       C          5.09810411  * -12.20695926  *  -0.02471354  *
     4       C          6.22981523  * -11.38783943  *   0.03172754  *
     5       C          6.16371194  *  -9.98732278  *   0.12596109  *
     6       C          4.88831743  *  -9.38374712  *   0.16359860  *
     7       O          7.44097041  * -12.06390590  *  -0.00849639  *
     8       C          8.60126107  * -11.30965468  *   0.00276558  *
     9       C          8.64912038  *  -9.96325607  *   0.07156238  *
    10       C          7.39098782  *  -9.16973207  *   0.19597402  *
    11       O          7.36470492  *  -7.96668179  *   0.35783417  *
    12       C          9.93673733  *  -9.25383035  *   0.03066774  *
    13       C         10.93039042  *  -9.64349598  *  -0.88153966  *
    14       C         12.16516236  *  -8.99117512  *  -0.91397187  *
    15       C         12.38118681  *  -7.93400271  *  -0.02046497  *
    16       C         11.39881074  *  -7.50987494  *   0.89225553  *
    17       C         10.17779602  *  -8.17230060  *   0.90537948  *
    18       O          2.76976617  * -12.37842841  *  -0.04218433  *
    19       O         13.56408670  *  -7.23617925  *   0.02787871  *
    20       H          2.75674066  *  -9.68484978  *   0.13611841  *
    21       H          5.17291596  * -13.28972329  *  -0.09561986  *
    22       H          4.83319550  *  -8.29089477  *   0.23869691  *
    23       H          9.42912274  * -12.01456545  *  -0.05215963  *
    24       H         10.74155339  * -10.45470128  *  -1.58418759  *
    25       H         12.93002080  *  -9.29516683  *  -1.62013822  *
    26       H         11.60571902  *  -6.67445684  *   1.55830077  *
    27       H          9.38656194  *  -7.84435643  *   1.58657152  *
    28       H          1.91308964  * -11.87697696  *  -0.01071268  *
    29       H         14.21543618  *  -7.55897560  *  -0.64093041  *

                             CARTESIAN COORDINATES

   1    C        3.735481394   -10.152964927     0.107979922
   2    C        3.858810403   -11.558963508     0.015172333
   3    C        5.098104113   -12.206959264    -0.024713544
   4    C        6.229815228   -11.387839434     0.031727541
   5    C        6.163711937    -9.987322778     0.125961094
   6    C        4.888317434    -9.383747116     0.163598604
   7    O        7.440970413   -12.063905896    -0.008496388
   8    C        8.601261067   -11.309654680     0.002765577
   9    C        8.649120376    -9.963256067     0.071562379
  10    C        7.390987823    -9.169732066     0.195974022
  11    O        7.364704925    -7.966681791     0.357834169
  12    C        9.936737328    -9.253830346     0.030667744
  13    C       10.930390420    -9.643495981    -0.881539656
  14    C       12.165162362    -8.991175122    -0.913971871
  15    C       12.381186805    -7.934002710    -0.020464966
  16    C       11.398810742    -7.509874937     0.892255532
  17    C       10.177796017    -8.172300604     0.905379476
  18    O        2.769766168   -12.378428415    -0.042184327
  19    O       13.564086703    -7.236179248     0.027878707
  20    H        2.756740665    -9.684849784     0.136118413
  21    H        5.172915961   -13.289723291    -0.095619858
  22    H        4.833195501    -8.290894767     0.238696909
  23    H        9.429122737   -12.014565449    -0.052159632
  24    H       10.741553395   -10.454701278    -1.584187593
  25    H       12.930020805    -9.295166832    -1.620138220
  26    H       11.605719021    -6.674456836     1.558300770
  27    H        9.386561944    -7.844356428     1.586571525
  28    H        1.913089644   -11.876976957    -0.010712682
  29    H       14.215436180    -7.558975601    -0.640930406


           Empirical Formula: C15 H10 O4  =    29 atoms



      MOLECULAR POINT GROUP   :   C1  


                  EIGENVALUES  
 -32.34216 -31.76244 -31.70960 -31.00922 -30.49466 -29.99492 -28.47894 -27.04967
 -26.70603 -26.25431 -25.45247 -23.53230 -23.32224 -22.16624 -21.95621 -21.05539
 -20.11386 -18.92482 -18.43228 -18.38429 -17.38549 -16.60811 -16.39101 -16.21714
 -15.92955 -15.61744 -15.12664 -15.05507 -14.95727 -14.71748 -14.64254 -14.54264
 -14.42364 -14.14571 -13.78501 -13.68287 -12.94250 -12.73592 -12.58737 -12.32902
 -12.07131 -10.96352 -10.37486 -10.05899  -9.99180  -9.82003  -8.82799  -0.83532
  -0.62962  -0.13490   0.09369   0.35942   0.67598   1.23302   1.70508   2.05315
   2.23337   2.41176   2.64807   2.84441   3.20990   3.42339   3.52916   3.69306
   3.88490   3.96644   4.10915   4.20334   4.38288   4.52354   4.64735   4.66847
   4.77819   4.82987   4.89047   4.95916   5.08052   5.29071   5.37914   5.55246
   5.56652   5.67464   5.85708   5.86255   6.18023   6.27468


              NET ATOMIC CHARGES AND DIPOLE CONTRIBUTIONS

  ATOM NO.   TYPE          CHARGE      No. of ELECS.   s-Pop       p-Pop       
    1          C          -0.478737        4.4787     1.11000     3.36873
    2          C           0.462181        3.5378     1.07957     2.45825
    3          C          -0.465420        4.4654     1.10136     3.36406
    4          C           0.440776        3.5592     1.08386     2.47537
    5          C          -0.471977        4.4720     1.11195     3.36002
    6          C           0.162866        3.8371     1.10496     2.73218
    7          O          -0.307286        6.3073     1.83119     4.47610
    8          C           0.148624        3.8514     1.12579     2.72559
    9          C          -0.294445        4.2944     1.11432     3.18013
   10          C           0.607400        3.3926     1.07412     2.31848
   11          O          -0.497542        6.4975     1.85298     4.64456
   12          C          -0.041627        4.0416     1.07225     2.96938
   13          C          -0.057953        4.0580     1.10422     2.95374
   14          C          -0.362493        4.3625     1.10600     3.25649
   15          C           0.339173        3.6608     1.08143     2.57940
   16          C          -0.288774        4.2888     1.10546     3.18332
   17          C          -0.029778        4.0298     1.11071     2.91906
   18          O          -0.449485        6.4495     1.80527     4.64421
   19          O          -0.470864        6.4709     1.80626     4.66460
   20          H           0.185341        0.8147     0.81466
   21          H           0.218064        0.7819     0.78194
   22          H           0.160530        0.8395     0.83947
   23          H           0.177567        0.8224     0.82243
   24          H           0.141953        0.8580     0.85805
   25          H           0.167077        0.8329     0.83292
   26          H           0.184167        0.8158     0.81583
   27          H           0.168561        0.8314     0.83144
   28          H           0.330020        0.6700     0.66998
   29          H           0.322081        0.6779     0.67792
 DIPOLE           X         Y         Z       TOTAL
 POINT-CHG.    -1.224    -2.330    -0.727     2.731
 HYBRID        -0.054    -0.309    -0.399     0.508
 SUM           -1.278    -2.640    -1.126     3.142


          ATOMIC ORBITAL ELECTRON POPULATIONS

     Atom    s        px        py        pz   
    1  C   1.11000   1.10257   1.02001   1.24615
    2  C   1.07957   0.81127   0.85797   0.78901
    3  C   1.10136   0.97476   1.12567   1.26363
    4  C   1.08386   0.78199   0.88266   0.81071
    5  C   1.11195   1.06289   1.01916   1.27798
    6  C   1.10496   0.90694   1.04683   0.77841
    7  O   1.83119   1.23874   1.45500   1.78237
    8  C   1.12579   0.84655   0.95637   0.92266
    9  C   1.11432   1.04616   0.99650   1.13748
   10  C   1.07412   0.84693   0.81673   0.65482
   11  O   1.85298   1.87179   1.29625   1.47652
   12  C   1.07225   0.93649   1.01056   1.02232
   13  C   1.10422   0.95328   1.00767   0.99279
   14  C   1.10600   1.07246   1.07369   1.11033
   15  C   1.08143   0.79495   0.86709   0.91736
   16  C   1.10546   0.99705   1.10329   1.08298
   17  C   1.11071   0.99917   0.93920   0.98069
   18  O   1.80527   1.28604   1.49209   1.86609
   19  O   1.80626   1.35447   1.65599   1.65414
   20  H   0.81466
   21  H   0.78194
   22  H   0.83947
   23  H   0.82243
   24  H   0.85805
   25  H   0.83292
   26  H   0.81583
   27  H   0.83144
   28  H   0.66998
   29  H   0.67792

 **********************
 *                    *
 * JOB ENDED NORMALLY *
 *                    *
 **********************



 TOTAL JOB TIME:             3.45 SECONDS

 == MOPAC DONE ==
