 *******************************************************************************
 ** Site#: 35412        For non-commercial use only    Version 20.225L 64BITS **
 *******************************************************************************
 ** Cite this program as: MOPAC2016, Version: 20.225L, James J. P. Stewart,   **
 ** Stewart Computational Chemistry, web: HTTP://OpenMOPAC.net. Days left: 364**
 *******************************************************************************
 **                                                                           **
 **                                MOPAC2016                                  **
 **                                                                           **
 *******************************************************************************

                              PM6 CALCULATION RESULTS

 *******************************************************************************
 *  CALCULATION DONE:                                Fri Aug 14 20:43:41 2020  *
 *  PM6        - The PM6 Hamiltonian to be used
 *  SINGLET    - SPIN STATE DEFINED AS A SINGLET
 *  OPT        - OPTIMIZE COORDINATES OF ALL ATOMS
 *
 *
 *
 *                 CHARGE ON SYSTEM = 0
 *
 *
 *
 *  PRECISE    - CRITERIA TO BE INCREASED BY 100 TIMES
 *  T=         - A TIME OF 172800.0 SECONDS REQUESTED
 *  DUMP=N     - RESTART FILE WRITTEN EVERY 7200.0 SECONDS REQUESTED
 *  AUX        - OUTPUT AUXILIARY INFORMATION
 *  PRTXYZ     - PRINT CARTESIAN COORDINATES
 *  LARGE      - EXPANDED OUTPUT TO BE PRINTED
 *******************************************************************************
 AUX LARGE CHARGE=0 SINGLET  PM6  OPT PRECISE PRTXYZ
 CN337.pdb
 29
   ATOM   CHEMICAL          X               Y               Z
  NUMBER   SYMBOL      (ANGSTROMS)     (ANGSTROMS)     (ANGSTROMS)
 
     1       C          7.94500000  *  -8.61900000  *   0.66200000  *
     2       C          9.36200000  *  -8.69500000  *   0.20900000  *
     3       C          9.75800000  *  -7.26600000  *   0.06900000  *
     4       C          8.50900000  *  -6.51800000  *  -0.10800000  *
     5       C          7.45400000  *  -7.30300000  *   0.18100000  *
     6       C          7.29100000  *  -9.79800000  *  -0.10400000  *
     7       O          8.40600000  * -10.63100000  *  -0.43600000  *
     8       C          9.21800000  *  -9.47900000  *  -1.04800000  *
     9       O         10.87700000  *  -6.82200000  *  -0.18500000  *
    10       O          6.10200000  *  -6.98400000  *   0.08200000  *
    11       C          5.87300000  *  -5.66600000  *  -0.42700000  *
    12       O          6.05500000  * -10.32500000  *   0.43900000  *
    13       C         10.24400000  *  -9.67600000  *   1.11900000  *
    14       H          8.03400000  *  -8.64000000  *   1.75800000  *
    15       O         11.65600000  *  -9.98700000  *   0.69000000  *
    16       C         12.68300000  *  -8.95600000  *   0.85700000  *
    17       H          8.46000000  *  -5.52800000  *  -0.44600000  *
    18       H          7.08500000  *  -9.41400000  *  -1.11300000  *
    19       H          8.59600000  *  -8.95400000  *  -1.78700000  *
    20       H         10.19200000  *  -9.73800000  *  -1.47600000  *
    21       H          4.78200000  *  -5.47800000  *  -0.49200000  *
    22       H          6.31600000  *  -5.58500000  *  -1.43000000  *
    23       H          6.32800000  *  -4.92600000  *   0.24400000  *
    24       H          6.26100000  * -10.77600000  *   1.32300000  *
    25       H         10.27400000  *  -9.27600000  *   2.13900000  *
    26       H          9.71700000  * -10.63500000  *   1.13800000  *
    27       H         13.64700000  *  -9.36000000  *   0.52000000  *
    28       H         12.75400000  *  -8.68300000  *   1.91800000  *
    29       H         12.44400000  *  -8.06900000  *   0.26500000  *
 


          CARTESIAN COORDINATES 

    NO.       ATOM           X           Y           Z

     1         C          7.9450     -8.6190      0.6620
     2         C          9.3620     -8.6950      0.2090
     3         C          9.7580     -7.2660      0.0690
     4         C          8.5090     -6.5180     -0.1080
     5         C          7.4540     -7.3030      0.1810
     6         C          7.2910     -9.7980     -0.1040
     7         O          8.4060    -10.6310     -0.4360
     8         C          9.2180     -9.4790     -1.0480
     9         O         10.8770     -6.8220     -0.1850
    10         O          6.1020     -6.9840      0.0820
    11         C          5.8730     -5.6660     -0.4270
    12         O          6.0550    -10.3250      0.4390
    13         C         10.2440     -9.6760      1.1190
    14         H          8.0340     -8.6400      1.7580
    15         O         11.6560     -9.9870      0.6900
    16         C         12.6830     -8.9560      0.8570
    17         H          8.4600     -5.5280     -0.4460
    18         H          7.0850     -9.4140     -1.1130
    19         H          8.5960     -8.9540     -1.7870
    20         H         10.1920     -9.7380     -1.4760
    21         H          4.7820     -5.4780     -0.4920
    22         H          6.3160     -5.5850     -1.4300
    23         H          6.3280     -4.9260      0.2440
    24         H          6.2610    -10.7760      1.3230
    25         H         10.2740     -9.2760      2.1390
    26         H          9.7170    -10.6350      1.1380
    27         H         13.6470     -9.3600      0.5200
    28         H         12.7540     -8.6830      1.9180
    29         H         12.4440     -8.0690      0.2650

 General Reference for PM6:
 "Optimization of Parameters for Semiempirical Methods V: Modification of NDDO Approximations
 and Application to 70 Elements", J. J. P. Stewart, J. Mol. Mod., 13, 1173-1213 (2007)
 URL: https://link.springer.com/article/10.1007/s00894-007-0233-4

           Empirical Formula: C10 H14 O5  =    29 atoms



      MOLECULAR POINT GROUP   :   C1  


 SINGLET STATE CALCULATION


      RHF CALCULATION, NO. OF DOUBLY OCCUPIED LEVELS = 42


          Geometry optimization using EF

          DIAGONAL MATRIX USED AS START HESSIAN

 CYCLE:     1 TIME:   0.031 TIME LEFT:  2.00D  GRAD.:   231.818 HEAT: -126.9108
 CYCLE:     2 TIME:   0.016 TIME LEFT:  2.00D  GRAD.:   240.916 HEAT: -140.8788
 CYCLE:     3 TIME:   0.023 TIME LEFT:  2.00D  GRAD.:   190.009 HEAT: -147.6454
 CYCLE:     4 TIME:   0.023 TIME LEFT:  2.00D  GRAD.:   141.176 HEAT: -154.0141
 CYCLE:     5 TIME:   0.023 TIME LEFT:  2.00D  GRAD.:   166.152 HEAT: -157.0791
 CYCLE:     6 TIME:   0.016 TIME LEFT:  2.00D  GRAD.:   151.490 HEAT: -161.4992
 CYCLE:     7 TIME:   0.016 TIME LEFT:  2.00D  GRAD.:   143.640 HEAT: -163.9269
 CYCLE:     8 TIME:   0.023 TIME LEFT:  2.00D  GRAD.:   157.990 HEAT: -165.9840
 CYCLE:     9 TIME:   0.016 TIME LEFT:  2.00D  GRAD.:   131.390 HEAT: -170.1090
 CYCLE:    10 TIME:   0.039 TIME LEFT:  2.00D  GRAD.:    85.852 HEAT: -174.3818
 CYCLE:    11 TIME:   0.039 TIME LEFT:  2.00D  GRAD.:    57.176 HEAT: -176.0822
 CYCLE:    12 TIME:   0.016 TIME LEFT:  2.00D  GRAD.:    36.211 HEAT: -177.6625
 CYCLE:    13 TIME:   0.023 TIME LEFT:  2.00D  GRAD.:    60.373 HEAT: -178.9742
 CYCLE:    14 TIME:   0.016 TIME LEFT:  2.00D  GRAD.:    61.125 HEAT: -181.3377
 CYCLE:    15 TIME:   0.016 TIME LEFT:  2.00D  GRAD.:    76.837 HEAT: -182.8778
 CYCLE:    16 TIME:   0.023 TIME LEFT:  2.00D  GRAD.:    72.202 HEAT: -184.0599
 CYCLE:    17 TIME:   0.031 TIME LEFT:  2.00D  GRAD.:    39.557 HEAT: -185.7030
 CYCLE:    18 TIME:   0.023 TIME LEFT:  2.00D  GRAD.:    45.028 HEAT: -186.2295
 CYCLE:    19 TIME:   0.016 TIME LEFT:  2.00D  GRAD.:    36.626 HEAT: -187.2094
 CYCLE:    20 TIME:   0.023 TIME LEFT:  2.00D  GRAD.:    52.758 HEAT: -187.5148
 CYCLE:    21 TIME:   0.016 TIME LEFT:  2.00D  GRAD.:    45.822 HEAT: -188.4095
 CYCLE:    22 TIME:   0.016 TIME LEFT:  2.00D  GRAD.:    35.958 HEAT: -189.1980
 CYCLE:    23 TIME:   0.016 TIME LEFT:  2.00D  GRAD.:    45.564 HEAT: -189.4478
 CYCLE:    24 TIME:   0.023 TIME LEFT:  2.00D  GRAD.:    53.479 HEAT: -189.7017
 CYCLE:    25 TIME:   0.016 TIME LEFT:  2.00D  GRAD.:    54.463 HEAT: -190.1078
 CYCLE:    26 TIME:   0.016 TIME LEFT:  2.00D  GRAD.:    30.301 HEAT: -191.1094
 CYCLE:    27 TIME:   0.023 TIME LEFT:  2.00D  GRAD.:    22.563 HEAT: -191.7991
 CYCLE:    28 TIME:   0.016 TIME LEFT:  2.00D  GRAD.:    21.982 HEAT: -192.6306
 CYCLE:    29 TIME:   0.023 TIME LEFT:  2.00D  GRAD.:    27.254 HEAT: -193.6068
 CYCLE:    30 TIME:   0.062 TIME LEFT:  2.00D  GRAD.:    24.328 HEAT: -194.2042
 CYCLE:    31 TIME:   0.023 TIME LEFT:  2.00D  GRAD.:    22.677 HEAT: -194.4947
 CYCLE:    32 TIME:   0.016 TIME LEFT:  2.00D  GRAD.:    24.508 HEAT: -194.8820
 CYCLE:    33 TIME:   0.016 TIME LEFT:  2.00D  GRAD.:    28.679 HEAT: -195.1282
 CYCLE:    34 TIME:   0.016 TIME LEFT:  2.00D  GRAD.:    20.372 HEAT: -195.5789
 CYCLE:    35 TIME:   0.023 TIME LEFT:  2.00D  GRAD.:    20.866 HEAT: -195.9116
 CYCLE:    36 TIME:   0.016 TIME LEFT:  2.00D  GRAD.:    21.173 HEAT: -196.2463
 CYCLE:    37 TIME:   0.023 TIME LEFT:  2.00D  GRAD.:    14.589 HEAT: -196.5974
 CYCLE:    38 TIME:   0.016 TIME LEFT:  2.00D  GRAD.:    20.791 HEAT: -196.7211
 CYCLE:    39 TIME:   0.016 TIME LEFT:  2.00D  GRAD.:    22.662 HEAT: -196.7596
 CYCLE:    40 TIME:   0.023 TIME LEFT:  2.00D  GRAD.:    12.740 HEAT: -197.0103
 CYCLE:    41 TIME:   0.016 TIME LEFT:  2.00D  GRAD.:    10.282 HEAT: -197.1201
 CYCLE:    42 TIME:   0.016 TIME LEFT:  2.00D  GRAD.:     9.032 HEAT: -197.2251
 CYCLE:    43 TIME:   0.023 TIME LEFT:  2.00D  GRAD.:     8.522 HEAT: -197.3858
 CYCLE:    44 TIME:   0.023 TIME LEFT:  2.00D  GRAD.:     7.548 HEAT: -197.4861
 CYCLE:    45 TIME:   0.016 TIME LEFT:  2.00D  GRAD.:     6.594 HEAT: -197.5492
 CYCLE:    46 TIME:   0.023 TIME LEFT:  2.00D  GRAD.:     7.191 HEAT: -197.5968
 CYCLE:    47 TIME:   0.023 TIME LEFT:  2.00D  GRAD.:     5.551 HEAT: -197.6379
 CYCLE:    48 TIME:   0.023 TIME LEFT:  2.00D  GRAD.:     5.595 HEAT: -197.6773
 CYCLE:    49 TIME:   0.078 TIME LEFT:  2.00D  GRAD.:     8.566 HEAT: -197.7328
 CYCLE:    50 TIME:   0.031 TIME LEFT:  2.00D  GRAD.:     7.610 HEAT: -197.7973
 CYCLE:    51 TIME:   0.023 TIME LEFT:  2.00D  GRAD.:     6.802 HEAT: -197.8608
 CYCLE:    52 TIME:   0.016 TIME LEFT:  2.00D  GRAD.:     9.360 HEAT: -197.9145
 CYCLE:    53 TIME:   0.023 TIME LEFT:  2.00D  GRAD.:     7.190 HEAT: -197.9711
 CYCLE:    54 TIME:   0.023 TIME LEFT:  2.00D  GRAD.:     5.632 HEAT: -198.0216
 CYCLE:    55 TIME:   0.016 TIME LEFT:  2.00D  GRAD.:     5.617 HEAT: -198.0732
 CYCLE:    56 TIME:   0.016 TIME LEFT:  2.00D  GRAD.:     5.487 HEAT: -198.1246
 CYCLE:    57 TIME:   0.023 TIME LEFT:  2.00D  GRAD.:     4.744 HEAT: -198.1742
 CYCLE:    58 TIME:   0.016 TIME LEFT:  2.00D  GRAD.:     4.348 HEAT: -198.2086
 CYCLE:    59 TIME:   0.016 TIME LEFT:  2.00D  GRAD.:     4.831 HEAT: -198.2469
 CYCLE:    60 TIME:   0.016 TIME LEFT:  2.00D  GRAD.:     4.533 HEAT: -198.2815
 CYCLE:    61 TIME:   0.016 TIME LEFT:  2.00D  GRAD.:     3.930 HEAT: -198.3150
 CYCLE:    62 TIME:   0.023 TIME LEFT:  2.00D  GRAD.:     3.890 HEAT: -198.3437
 CYCLE:    63 TIME:   0.016 TIME LEFT:  2.00D  GRAD.:     4.263 HEAT: -198.3738
 CYCLE:    64 TIME:   0.016 TIME LEFT:  2.00D  GRAD.:     3.982 HEAT: -198.4109
 CYCLE:    65 TIME:   0.008 TIME LEFT:  2.00D  GRAD.:     3.579 HEAT: -198.4442
 CYCLE:    66 TIME:   0.023 TIME LEFT:  2.00D  GRAD.:     3.292 HEAT: -198.4671
 CYCLE:    67 TIME:   0.016 TIME LEFT:  2.00D  GRAD.:     2.931 HEAT: -198.4860
 CYCLE:    68 TIME:   0.023 TIME LEFT:  2.00D  GRAD.:     3.278 HEAT: -198.5052
 CYCLE:    69 TIME:   0.023 TIME LEFT:  2.00D  GRAD.:     3.473 HEAT: -198.5258
 CYCLE:    70 TIME:   0.016 TIME LEFT:  2.00D  GRAD.:     4.136 HEAT: -198.5474
 CYCLE:    71 TIME:   0.016 TIME LEFT:  2.00D  GRAD.:     3.514 HEAT: -198.5689
 CYCLE:    72 TIME:   0.016 TIME LEFT:  2.00D  GRAD.:     3.232 HEAT: -198.5907
 CYCLE:    73 TIME:   0.023 TIME LEFT:  2.00D  GRAD.:     2.796 HEAT: -198.6095
 CYCLE:    74 TIME:   0.016 TIME LEFT:  2.00D  GRAD.:     3.058 HEAT: -198.6248
 CYCLE:    75 TIME:   0.016 TIME LEFT:  2.00D  GRAD.:     2.380 HEAT: -198.6410
 CYCLE:    76 TIME:   0.016 TIME LEFT:  2.00D  GRAD.:     2.321 HEAT: -198.6537
 CYCLE:    77 TIME:   0.023 TIME LEFT:  2.00D  GRAD.:     2.346 HEAT: -198.6649
 CYCLE:    78 TIME:   0.023 TIME LEFT:  2.00D  GRAD.:     1.728 HEAT: -198.6724
 CYCLE:    79 TIME:   0.016 TIME LEFT:  2.00D  GRAD.:     1.377 HEAT: -198.6787
 CYCLE:    80 TIME:   0.031 TIME LEFT:  2.00D  GRAD.:     1.205 HEAT: -198.6824
 CYCLE:    81 TIME:   0.039 TIME LEFT:  2.00D  GRAD.:     1.101 HEAT: -198.6856
 CYCLE:    82 TIME:   0.016 TIME LEFT:  2.00D  GRAD.:     1.032 HEAT: -198.6883
 CYCLE:    83 TIME:   0.016 TIME LEFT:  2.00D  GRAD.:     0.972 HEAT: -198.6910
 CYCLE:    84 TIME:   0.016 TIME LEFT:  2.00D  GRAD.:     0.809 HEAT: -198.6930
 CYCLE:    85 TIME:   0.016 TIME LEFT:  2.00D  GRAD.:     0.624 HEAT: -198.6942
 CYCLE:    86 TIME:   0.023 TIME LEFT:  2.00D  GRAD.:     0.558 HEAT: -198.6950
 CYCLE:    87 TIME:   0.016 TIME LEFT:  2.00D  GRAD.:     0.562 HEAT: -198.6957
 CYCLE:    88 TIME:   0.016 TIME LEFT:  2.00D  GRAD.:     0.608 HEAT: -198.6966
 CYCLE:    89 TIME:   0.016 TIME LEFT:  2.00D  GRAD.:     0.614 HEAT: -198.6975
 CYCLE:    90 TIME:   0.023 TIME LEFT:  2.00D  GRAD.:     0.636 HEAT: -198.6985
 CYCLE:    91 TIME:   0.016 TIME LEFT:  2.00D  GRAD.:     0.668 HEAT: -198.6994
 CYCLE:    92 TIME:   0.016 TIME LEFT:  2.00D  GRAD.:     0.705 HEAT: -198.7004
 CYCLE:    93 TIME:   0.016 TIME LEFT:  2.00D  GRAD.:     0.666 HEAT: -198.7014
 CYCLE:    94 TIME:   0.023 TIME LEFT:  2.00D  GRAD.:     0.642 HEAT: -198.7024
 CYCLE:    95 TIME:   0.016 TIME LEFT:  2.00D  GRAD.:     0.624 HEAT: -198.7033
 CYCLE:    96 TIME:   0.016 TIME LEFT:  2.00D  GRAD.:     0.660 HEAT: -198.7043
 CYCLE:    97 TIME:   0.016 TIME LEFT:  2.00D  GRAD.:     0.698 HEAT: -198.7055
 CYCLE:    98 TIME:   0.016 TIME LEFT:  2.00D  GRAD.:     0.680 HEAT: -198.7067
 CYCLE:    99 TIME:   0.016 TIME LEFT:  2.00D  GRAD.:     0.599 HEAT: -198.7077
 CYCLE:   100 TIME:   0.016 TIME LEFT:  2.00D  GRAD.:     0.478 HEAT: -198.7085
 CYCLE:   101 TIME:   0.023 TIME LEFT:  2.00D  GRAD.:     0.384 HEAT: -198.7089
 CYCLE:   102 TIME:   0.016 TIME LEFT:  2.00D  GRAD.:     0.331 HEAT: -198.7092
 CYCLE:   103 TIME:   0.016 TIME LEFT:  2.00D  GRAD.:     0.322 HEAT: -198.7094
 CYCLE:   104 TIME:   0.016 TIME LEFT:  2.00D  GRAD.:     0.309 HEAT: -198.7096
 CYCLE:   105 TIME:   0.016 TIME LEFT:  2.00D  GRAD.:     0.266 HEAT: -198.7098
 CYCLE:   106 TIME:   0.016 TIME LEFT:  2.00D  GRAD.:     0.227 HEAT: -198.7100
 CYCLE:   107 TIME:   0.023 TIME LEFT:  2.00D  GRAD.:     0.223 HEAT: -198.7101
 CYCLE:   108 TIME:   0.016 TIME LEFT:  2.00D  GRAD.:     0.242 HEAT: -198.7102
 CYCLE:   109 TIME:   0.016 TIME LEFT:  2.00D  GRAD.:     0.278 HEAT: -198.7104
 CYCLE:   110 TIME:   0.016 TIME LEFT:  2.00D  GRAD.:     0.293 HEAT: -198.7105
 CYCLE:   111 TIME:   0.023 TIME LEFT:  2.00D  GRAD.:     0.290 HEAT: -198.7107
 CYCLE:   112 TIME:   0.016 TIME LEFT:  2.00D  GRAD.:     0.276 HEAT: -198.7109
 CYCLE:   113 TIME:   0.016 TIME LEFT:  2.00D  GRAD.:     0.262 HEAT: -198.7111
 CYCLE:   114 TIME:   0.016 TIME LEFT:  2.00D  GRAD.:     0.270 HEAT: -198.7112
 CYCLE:   115 TIME:   0.016 TIME LEFT:  2.00D  GRAD.:     0.275 HEAT: -198.7114
 CYCLE:   116 TIME:   0.023 TIME LEFT:  2.00D  GRAD.:     0.274 HEAT: -198.7115
 CYCLE:   117 TIME:   0.016 TIME LEFT:  2.00D  GRAD.:     0.263 HEAT: -198.7117
 CYCLE:   118 TIME:   0.016 TIME LEFT:  2.00D  GRAD.:     0.240 HEAT: -198.7118
 CYCLE:   119 TIME:   0.016 TIME LEFT:  2.00D  GRAD.:     0.219 HEAT: -198.7120
 CYCLE:   120 TIME:   0.023 TIME LEFT:  2.00D  GRAD.:     0.191 HEAT: -198.7121
 CYCLE:   121 TIME:   0.016 TIME LEFT:  2.00D  GRAD.:     0.182 HEAT: -198.7122
 CYCLE:   122 TIME:   0.016 TIME LEFT:  2.00D  GRAD.:     0.186 HEAT: -198.7122
 CYCLE:   123 TIME:   0.016 TIME LEFT:  2.00D  GRAD.:     0.197 HEAT: -198.7123
 CYCLE:   124 TIME:   0.016 TIME LEFT:  2.00D  GRAD.:     0.217 HEAT: -198.7125
 CYCLE:   125 TIME:   0.016 TIME LEFT:  2.00D  GRAD.:     0.214 HEAT: -198.7126
 CYCLE:   126 TIME:   0.023 TIME LEFT:  2.00D  GRAD.:     0.207 HEAT: -198.7127
 CYCLE:   127 TIME:   0.016 TIME LEFT:  2.00D  GRAD.:     0.179 HEAT: -198.7128
 CYCLE:   128 TIME:   0.023 TIME LEFT:  2.00D  GRAD.:     0.214 HEAT: -198.7129
 CYCLE:   129 TIME:   0.016 TIME LEFT:  2.00D  GRAD.:     0.176 HEAT: -198.7130
 CYCLE:   130 TIME:   0.016 TIME LEFT:  2.00D  GRAD.:     0.223 HEAT: -198.7132
 CYCLE:   131 TIME:   0.016 TIME LEFT:  2.00D  GRAD.:     0.167 HEAT: -198.7132
 CYCLE:   132 TIME:   0.016 TIME LEFT:  2.00D  GRAD.:     0.119 HEAT: -198.7133
 CYCLE:   133 TIME:   0.023 TIME LEFT:  2.00D  GRAD.:     0.096 HEAT: -198.7133
 CYCLE:   134 TIME:   0.016 TIME LEFT:  2.00D  GRAD.:     0.127 HEAT: -198.7134
 CYCLE:   135 TIME:   0.023 TIME LEFT:  2.00D  GRAD.:     0.077 HEAT: -198.7134
 CYCLE:   136 TIME:   0.016 TIME LEFT:  2.00D  GRAD.:     0.060 HEAT: -198.7134
 CYCLE:   137 TIME:   0.023 TIME LEFT:  2.00D  GRAD.:     0.060 HEAT: -198.7134
 CYCLE:   138 TIME:   0.016 TIME LEFT:  2.00D  GRAD.:     0.064 HEAT: -198.7134
 CYCLE:   139 TIME:   0.055 TIME LEFT:  2.00D  GRAD.:     0.093 HEAT: -198.7134
 CYCLE:   140 TIME:   0.016 TIME LEFT:  2.00D  GRAD.:     0.059 HEAT: -198.7135
 CYCLE:   141 TIME:   0.016 TIME LEFT:  2.00D  GRAD.:     0.052 HEAT: -198.7135
 CYCLE:   142 TIME:   0.016 TIME LEFT:  2.00D  GRAD.:     0.048 HEAT: -198.7135

     GRADIENT =  0.04760 IS LESS THAN CUTOFF =  0.05000



 -------------------------------------------------------------------------------
 AUX LARGE CHARGE=0 SINGLET  PM6  OPT PRECISE PRTXYZ
 CN337.pdb
 29


     GEOMETRY OPTIMISED USING EIGENVECTOR FOLLOWING (EF).     
     SCF FIELD WAS ACHIEVED                                   


                              PM6 CALCULATION
                                                       MOPAC2016 (Version: 20.225L)
                                                       Fri Aug 14 20:43:44 2020
                                                       No. of days remaining = 364




          FINAL HEAT OF FORMATION =       -198.71348 KCAL/MOL =    -831.41721 KJ/MOL


          TOTAL ENERGY            =      -2872.37596 EV
          ELECTRONIC ENERGY       =     -17380.91011 EV  POINT GROUP:     C1  
          CORE-CORE REPULSION     =      14508.53415 EV
          COSMO AREA              =        226.13 SQUARE ANGSTROMS
          COSMO VOLUME            =        249.05 CUBIC ANGSTROMS

          GRADIENT NORM           =          0.04760 = 0.00884 PER ATOM
          IONIZATION POTENTIAL    =         10.169252 EV
          HOMO LUMO ENERGIES (EV) =        -10.169 -0.523
          NO. OF FILLED LEVELS    =         42
          MOLECULAR WEIGHT        =        214.2176

          MOLECULAR DIMENSIONS (Angstroms)

            Atom       Atom       Distance
            H    27    H    21     9.56037
            H    24    H    17     5.88648
            H    25    H    19     4.01923


          SCF CALCULATIONS        =        148
 
          WALL-CLOCK TIME         =          2.883 SECONDS
          COMPUTATION TIME        =          5.047 SECONDS




   ATOM   CHEMICAL          X               Y               Z
  NUMBER   SYMBOL      (ANGSTROMS)     (ANGSTROMS)     (ANGSTROMS)
 
     1       C          7.82714467  *  -8.62278255  *   0.54958730  *
     2       C          9.36283892  *  -8.71941397  *   0.27246349  *
     3       C          9.75504861  *  -7.30088701  *  -0.25756878  *
     4       C          8.54380363  *  -6.47317663  *  -0.26495810  *
     5       C          7.48441626  *  -7.20145741  *   0.15703264  *
     6       C          7.17306403  *  -9.69324653  *  -0.35878298  *
     7       O          8.15986383  * -10.12013946  *  -1.29049580  *
     8       C          9.49932190  *  -9.77542755  *  -0.83904491  *
     9       O         10.87058756  *  -6.99256750  *  -0.59467237  *
    10       O          6.18103793  *  -6.89462849  *   0.30364904  *
    11       C          5.77820569  *  -5.54115652  *  -0.06440883  *
    12       O          6.78016131  * -10.81150632  *   0.41310449  *
    13       C         10.15927378  *  -9.09518151  *   1.53529821  *
    14       H          7.55190335  *  -8.81626215  *   1.61158590  *
    15       O         11.28179529  *  -9.92910300  *   1.22520764  *
    16       C         12.46374519  *  -9.22551490  *   0.78437984  *
    17       H          8.57889008  *  -5.44947347  *  -0.58940898  *
    18       H          6.27257251  *  -9.38862714  *  -0.92441214  *
    19       H         10.00959861  *  -9.41215742  *  -1.74712638  *
    20       H          9.97789669  * -10.70774588  *  -0.48558946  *
    21       H          4.70000707  *  -5.56531829  *   0.14097246  *
    22       H          5.98054780  *  -5.36836027  *  -1.12584543  *
    23       H          6.29173490  *  -4.81428193  *   0.57173703  *
    24       H          7.51958630  * -11.44372919  *   0.53902181  *
    25       H         10.47565833  *  -8.20205012  *   2.10057959  *
    26       H          9.56951110  *  -9.76182556  *   2.19705156  *
    27       H         13.13794824  * -10.04470432  *   0.51093721  *
    28       H         12.87589595  *  -8.63681288  *   1.60799881  *
    29       H         12.24284308  *  -8.58629368  *  -0.08109788  *

                             CARTESIAN COORDINATES

   1    C        7.827144668    -8.622782547     0.549587296
   2    C        9.362838917    -8.719413969     0.272463489
   3    C        9.755048613    -7.300887009    -0.257568784
   4    C        8.543803629    -6.473176629    -0.264958100
   5    C        7.484416259    -7.201457407     0.157032642
   6    C        7.173064027    -9.693246528    -0.358782982
   7    O        8.159863831   -10.120139456    -1.290495799
   8    C        9.499321898    -9.775427555    -0.839044912
   9    O       10.870587555    -6.992567497    -0.594672370
  10    O        6.181037934    -6.894628492     0.303649040
  11    C        5.778205691    -5.541156518    -0.064408828
  12    O        6.780161306   -10.811506316     0.413104494
  13    C       10.159273785    -9.095181506     1.535298208
  14    H        7.551903353    -8.816262152     1.611585903
  15    O       11.281795288    -9.929103002     1.225207638
  16    C       12.463745193    -9.225514901     0.784379835
  17    H        8.578890081    -5.449473473    -0.589408979
  18    H        6.272572510    -9.388627140    -0.924412136
  19    H       10.009598605    -9.412157418    -1.747126381
  20    H        9.977896692   -10.707745879    -0.485589459
  21    H        4.700007070    -5.565318288     0.140972461
  22    H        5.980547796    -5.368360266    -1.125845427
  23    H        6.291734901    -4.814281934     0.571737033
  24    H        7.519586302   -11.443729190     0.539021814
  25    H       10.475658334    -8.202050117     2.100579595
  26    H        9.569511098    -9.761825565     2.197051558
  27    H       13.137948236   -10.044704319     0.510937206
  28    H       12.875895950    -8.636812875     1.607998814
  29    H       12.242843079    -8.586293679    -0.081097882


           Empirical Formula: C10 H14 O5  =    29 atoms



      MOLECULAR POINT GROUP   :   C1  


                  EIGENVALUES  
 -32.16044 -32.05815 -31.61594 -30.21833 -29.89433 -29.27348 -27.12578 -26.69863
 -25.77625 -25.25593 -23.86785 -22.99825 -22.07994 -20.57898 -19.81165 -18.54521
 -18.29396 -17.38045 -16.96064 -16.88344 -16.60812 -16.50977 -16.35510 -15.60837
 -15.38296 -14.99879 -14.93304 -14.42749 -14.15699 -13.78671 -13.66345 -13.52358
 -13.46421 -12.95579 -12.90022 -12.70488 -12.14185 -11.25321 -10.85108 -10.28139
 -10.19921 -10.16925  -0.52298   0.51570   1.04626   1.50903   1.62005   2.02775
   2.21812   2.42151   2.62410   2.90727   3.06252   3.30075   3.36411   3.63254
   3.81597   3.93895   4.27116   4.51647   4.56280   4.61889   4.82944   4.94073
   5.00169   5.06369   5.20796   5.24751   5.39819   5.53957   5.57403   5.69900
   5.92986   6.08386


              NET ATOMIC CHARGES AND DIPOLE CONTRIBUTIONS

  ATOM NO.   TYPE          CHARGE      No. of ELECS.   s-Pop       p-Pop       
    1          C          -0.301727        4.3017     1.13235     3.16938
    2          C          -0.173068        4.1731     1.14060     3.03247
    3          C           0.582851        3.4171     1.10187     2.31528
    4          C          -0.604476        4.6045     1.12408     3.48039
    5          C           0.403833        3.5962     1.09918     2.49698
    6          C           0.404689        3.5953     1.10746     2.48785
    7          O          -0.478589        6.4786     1.85796     4.62063
    8          C          -0.005128        4.0051     1.11249     2.89264
    9          O          -0.484294        6.4843     1.84850     4.63579
   10          O          -0.333595        6.3336     1.83850     4.49509
   11          C          -0.192433        4.1924     1.11065     3.08178
   12          O          -0.574545        6.5745     1.81253     4.76202
   13          C          -0.012591        4.0126     1.10233     2.91026
   14          H           0.197933        0.8021     0.80207
   15          O          -0.434194        6.4342     1.85788     4.57631
   16          C          -0.201098        4.2011     1.10357     3.09752
   17          H           0.212699        0.7873     0.78730
   18          H           0.158167        0.8418     0.84183
   19          H           0.154398        0.8456     0.84560
   20          H           0.158536        0.8415     0.84146
   21          H           0.168419        0.8316     0.83158
   22          H           0.152264        0.8477     0.84774
   23          H           0.150648        0.8494     0.84935
   24          H           0.332584        0.6674     0.66742
   25          H           0.129987        0.8700     0.87001
   26          H           0.147567        0.8524     0.85243
   27          H           0.151668        0.8483     0.84833
   28          H           0.129536        0.8705     0.87046
   29          H           0.159958        0.8400     0.84004
 DIPOLE           X         Y         Z       TOTAL
 POINT-CHG.    -1.795     3.497     1.337     4.152
 HYBRID         0.035    -0.442     0.178     0.478
 SUM           -1.760     3.055     1.515     3.837


          ATOMIC ORBITAL ELECTRON POPULATIONS

     Atom    s        px        py        pz   
    1  C   1.13235   1.01595   1.00541   1.14802
    2  C   1.14060   0.95280   1.05152   1.02815
    3  C   1.10187   0.81905   0.83799   0.65824
    4  C   1.12408   1.04755   1.14965   1.28319
    5  C   1.09918   0.78951   0.90413   0.80334
    6  C   1.10746   0.89607   0.79043   0.80135
    7  O   1.85796   1.25846   1.81926   1.54291
    8  C   1.11249   0.81288   1.05117   1.02859
    9  O   1.84850   1.36752   1.79043   1.47784
   10  O   1.83850   1.32927   1.38761   1.77821
   11  C   1.11065   1.11703   0.82967   1.13508
   12  O   1.81253   1.53982   1.44278   1.77942
   13  C   1.10233   0.89087   1.04234   0.97705
   14  H   0.80207
   15  O   1.85788   1.28566   1.40859   1.88206
   16  C   1.10357   0.88780   1.08927   1.12045
   17  H   0.78730
   18  H   0.84183
   19  H   0.84560
   20  H   0.84146
   21  H   0.83158
   22  H   0.84774
   23  H   0.84935
   24  H   0.66742
   25  H   0.87001
   26  H   0.85243
   27  H   0.84833
   28  H   0.87046
   29  H   0.84004

 **********************
 *                    *
 * JOB ENDED NORMALLY *
 *                    *
 **********************



 TOTAL JOB TIME:             2.92 SECONDS

 == MOPAC DONE ==
