 *******************************************************************************
 ** Site#: 35412        For non-commercial use only    Version 20.225L 64BITS **
 *******************************************************************************
 ** Cite this program as: MOPAC2016, Version: 20.225L, James J. P. Stewart,   **
 ** Stewart Computational Chemistry, web: HTTP://OpenMOPAC.net. Days left: 364**
 *******************************************************************************
 **                                                                           **
 **                                MOPAC2016                                  **
 **                                                                           **
 *******************************************************************************

                              PM6 CALCULATION RESULTS

 *******************************************************************************
 *  CALCULATION DONE:                                Fri Aug 14 20:43:18 2020  *
 *  PM6        - The PM6 Hamiltonian to be used
 *  SINGLET    - SPIN STATE DEFINED AS A SINGLET
 *  OPT        - OPTIMIZE COORDINATES OF ALL ATOMS
 *
 *
 *
 *                 CHARGE ON SYSTEM = 0
 *
 *
 *
 *  PRECISE    - CRITERIA TO BE INCREASED BY 100 TIMES
 *  T=         - A TIME OF 172800.0 SECONDS REQUESTED
 *  DUMP=N     - RESTART FILE WRITTEN EVERY 7200.0 SECONDS REQUESTED
 *  AUX        - OUTPUT AUXILIARY INFORMATION
 *  PRTXYZ     - PRINT CARTESIAN COORDINATES
 *  LARGE      - EXPANDED OUTPUT TO BE PRINTED
 *******************************************************************************
 AUX LARGE CHARGE=0 SINGLET  PM6  OPT PRECISE PRTXYZ
 CN334.pdb
 40
   ATOM   CHEMICAL          X               Y               Z
  NUMBER   SYMBOL      (ANGSTROMS)     (ANGSTROMS)     (ANGSTROMS)
 
     1       C          6.75400000  *  -8.53300000  *  -0.75900000  *
     2       O          8.01200000  *  -9.17900000  *  -0.42500000  *
     3       C          7.91300000  * -10.49500000  *  -0.69700000  *
     4       C          6.65800000  * -10.73300000  *  -1.25300000  *
     5       O          5.99700000  *  -9.58300000  *  -1.36200000  *
     6       C          6.05000000  *  -8.23100000  *   0.51900000  *
     7       C          6.95600000  *  -7.27100000  *  -1.67900000  *
     8       C          7.83200000  *  -6.19400000  *  -1.03700000  *
     9       O          6.23800000  * -11.84000000  *  -1.60300000  *
    10       C          8.82900000  * -11.45000000  *  -0.49400000  *
    11       C         10.17700000  * -11.19200000  *   0.09400000  *
    12       C         10.60200000  *  -9.91700000  *   0.46200000  *
    13       C         11.87000000  *  -9.73100000  *   1.00600000  *
    14       C         12.71800000  * -10.81700000  *   1.18500000  *
    15       C         12.29900000  * -12.09000000  *   0.81900000  *
    16       C         11.03300000  * -12.27500000  *   0.27500000  *
    17       O          5.31800000  *  -9.25700000  *   1.08100000  *
    18       O          6.11700000  *  -7.11600000  *   1.05800000  *
    19       C          4.68500000  *  -8.83300000  *   2.27900000  *
    20       C          7.32000000  *  -4.91000000  *  -0.86800000  *
    21       C          8.10200000  *  -3.91000000  *  -0.29700000  *
    22       C          9.40100000  *  -4.19600000  *   0.10700000  *
    23       C          9.92000000  *  -5.47500000  *  -0.06300000  *
    24       C          9.13500000  *  -6.47400000  *  -0.63600000  *
    25       H          7.47000000  *  -7.63200000  *  -2.58400000  *
    26       H          5.97600000  *  -6.84100000  *  -1.94200000  *
    27       H          8.58000000  * -12.45500000  *  -0.76900000  *
    28       H          9.96600000  *  -9.08700000  *   0.32800000  *
    29       H         12.19400000  *  -8.75700000  *   1.28600000  *
    30       H         13.68800000  * -10.67500000  *   1.60100000  *
    31       H         12.94800000  * -12.92300000  *   0.95500000  *
    32       H         10.71600000  * -13.24900000  *  -0.00300000  *
    33       H          4.10800000  *  -9.66900000  *   2.70100000  *
    34       H          4.01000000  *  -7.99200000  *   2.06000000  *
    35       H          5.44700000  *  -8.51200000  *   3.00000000  *
    36       H          6.32900000  *  -4.69300000  *  -1.17900000  *
    37       H          7.70900000  *  -2.91800000  *  -0.16700000  *
    38       H          9.99800000  *  -3.43400000  *   0.54300000  *
    39       H         10.92600000  *  -5.68200000  *   0.24600000  *
    40       H          9.53000000  *  -7.45400000  *  -0.77000000  *
 


          CARTESIAN COORDINATES 

    NO.       ATOM           X           Y           Z

     1         C          6.7540     -8.5330     -0.7590
     2         O          8.0120     -9.1790     -0.4250
     3         C          7.9130    -10.4950     -0.6970
     4         C          6.6580    -10.7330     -1.2530
     5         O          5.9970     -9.5830     -1.3620
     6         C          6.0500     -8.2310      0.5190
     7         C          6.9560     -7.2710     -1.6790
     8         C          7.8320     -6.1940     -1.0370
     9         O          6.2380    -11.8400     -1.6030
    10         C          8.8290    -11.4500     -0.4940
    11         C         10.1770    -11.1920      0.0940
    12         C         10.6020     -9.9170      0.4620
    13         C         11.8700     -9.7310      1.0060
    14         C         12.7180    -10.8170      1.1850
    15         C         12.2990    -12.0900      0.8190
    16         C         11.0330    -12.2750      0.2750
    17         O          5.3180     -9.2570      1.0810
    18         O          6.1170     -7.1160      1.0580
    19         C          4.6850     -8.8330      2.2790
    20         C          7.3200     -4.9100     -0.8680
    21         C          8.1020     -3.9100     -0.2970
    22         C          9.4010     -4.1960      0.1070
    23         C          9.9200     -5.4750     -0.0630
    24         C          9.1350     -6.4740     -0.6360
    25         H          7.4700     -7.6320     -2.5840
    26         H          5.9760     -6.8410     -1.9420
    27         H          8.5800    -12.4550     -0.7690
    28         H          9.9660     -9.0870      0.3280
    29         H         12.1940     -8.7570      1.2860
    30         H         13.6880    -10.6750      1.6010
    31         H         12.9480    -12.9230      0.9550
    32         H         10.7160    -13.2490     -0.0030
    33         H          4.1080     -9.6690      2.7010
    34         H          4.0100     -7.9920      2.0600
    35         H          5.4470     -8.5120      3.0000
    36         H          6.3290     -4.6930     -1.1790
    37         H          7.7090     -2.9180     -0.1670
    38         H          9.9980     -3.4340      0.5430
    39         H         10.9260     -5.6820      0.2460
    40         H          9.5300     -7.4540     -0.7700

 General Reference for PM6:
 "Optimization of Parameters for Semiempirical Methods V: Modification of NDDO Approximations
 and Application to 70 Elements", J. J. P. Stewart, J. Mol. Mod., 13, 1173-1213 (2007)
 URL: https://link.springer.com/article/10.1007/s00894-007-0233-4

           Empirical Formula: C19 H16 O5  =    40 atoms



      MOLECULAR POINT GROUP   :   C1  


 SINGLET STATE CALCULATION


      RHF CALCULATION, NO. OF DOUBLY OCCUPIED LEVELS = 61


          Geometry optimization using L-BFGS
 CYCLE:     1 TIME:   0.047 TIME LEFT:  2.00D  GRAD.:   272.226 HEAT: -99.85512
 CYCLE:     2 TIME:   0.023 TIME LEFT:  2.00D  GRAD.:   264.785 HEAT: -100.5862
 CYCLE:     3 TIME:   0.031 TIME LEFT:  2.00D  GRAD.:    81.996 HEAT: -116.6767
 CYCLE:     4 TIME:   0.039 TIME LEFT:  2.00D  GRAD.:   264.846 HEAT: -100.5864
 CYCLE:     5 TIME:   0.023 TIME LEFT:  2.00D  GRAD.:    82.019 HEAT: -116.6769
 CYCLE:     6 TIME:   0.031 TIME LEFT:  2.00D  GRAD.:    54.128 HEAT: -118.8069
 CYCLE:     7 TIME:   0.031 TIME LEFT:  2.00D  GRAD.:    43.758 HEAT: -121.0039
 CYCLE:     8 TIME:   0.031 TIME LEFT:  2.00D  GRAD.:    72.061 HEAT: -121.9359
 CYCLE:     9 TIME:   0.039 TIME LEFT:  2.00D  GRAD.:    31.842 HEAT: -122.9460
 CYCLE:    10 TIME:   0.031 TIME LEFT:  2.00D  GRAD.:    26.248 HEAT: -123.5831
 CYCLE:    11 TIME:   0.031 TIME LEFT:  2.00D  GRAD.:    28.422 HEAT: -124.1239
 CYCLE:    12 TIME:   0.023 TIME LEFT:  2.00D  GRAD.:    36.311 HEAT: -125.0366
 CYCLE:    13 TIME:   0.031 TIME LEFT:  2.00D  GRAD.:    92.187 HEAT: -124.4730
 CYCLE:    14 TIME:   0.031 TIME LEFT:  2.00D  GRAD.:    17.057 HEAT: -125.7642
 CYCLE:    15 TIME:   0.031 TIME LEFT:  2.00D  GRAD.:    13.420 HEAT: -125.8892
 CYCLE:    16 TIME:   0.023 TIME LEFT:  2.00D  GRAD.:    14.260 HEAT: -126.1566
 CYCLE:    17 TIME:   0.039 TIME LEFT:  2.00D  GRAD.:    13.822 HEAT: -126.3731
 CYCLE:    18 TIME:   0.031 TIME LEFT:  2.00D  GRAD.:    31.348 HEAT: -126.3389
 CYCLE:    19 TIME:   0.031 TIME LEFT:  2.00D  GRAD.:     6.891 HEAT: -126.5368
 CYCLE:    20 TIME:   0.039 TIME LEFT:  2.00D  GRAD.:     6.190 HEAT: -126.5640
 CYCLE:    21 TIME:   0.039 TIME LEFT:  2.00D  GRAD.:     9.909 HEAT: -126.6416
 CYCLE:    22 TIME:   0.039 TIME LEFT:  2.00D  GRAD.:    21.019 HEAT: -126.6737
 CYCLE:    23 TIME:   0.039 TIME LEFT:  2.00D  GRAD.:     8.543 HEAT: -126.7474
 CYCLE:    24 TIME:   0.031 TIME LEFT:  2.00D  GRAD.:     6.373 HEAT: -126.7900
 CYCLE:    25 TIME:   0.031 TIME LEFT:  2.00D  GRAD.:     7.335 HEAT: -126.8271
 CYCLE:    26 TIME:   0.062 TIME LEFT:  2.00D  GRAD.:     8.415 HEAT: -126.8975
 CYCLE:    27 TIME:   0.047 TIME LEFT:  2.00D  GRAD.:    29.952 HEAT: -126.8604
 CYCLE:    28 TIME:   0.023 TIME LEFT:  2.00D  GRAD.:     6.393 HEAT: -126.9978
 CYCLE:    29 TIME:   0.039 TIME LEFT:  2.00D  GRAD.:     5.601 HEAT: -127.0231
 CYCLE:    30 TIME:   0.031 TIME LEFT:  2.00D  GRAD.:    11.557 HEAT: -127.0912
 CYCLE:    31 TIME:   0.031 TIME LEFT:  2.00D  GRAD.:    15.776 HEAT: -127.0969
 CYCLE:    32 TIME:   0.031 TIME LEFT:  2.00D  GRAD.:     4.386 HEAT: -127.1379
 CYCLE:    33 TIME:   0.023 TIME LEFT:  2.00D  GRAD.:     3.148 HEAT: -127.1470
 CYCLE:    34 TIME:   0.031 TIME LEFT:  2.00D  GRAD.:     3.654 HEAT: -127.1601
 CYCLE:    35 TIME:   0.023 TIME LEFT:  2.00D  GRAD.:     4.032 HEAT: -127.1782
 CYCLE:    36 TIME:   0.031 TIME LEFT:  2.00D  GRAD.:    11.676 HEAT: -127.1908
 CYCLE:    37 TIME:   0.031 TIME LEFT:  2.00D  GRAD.:     3.889 HEAT: -127.2187
 CYCLE:    38 TIME:   0.031 TIME LEFT:  2.00D  GRAD.:     3.049 HEAT: -127.2294
 CYCLE:    39 TIME:   0.031 TIME LEFT:  2.00D  GRAD.:     5.191 HEAT: -127.2450
 CYCLE:    40 TIME:   0.031 TIME LEFT:  2.00D  GRAD.:     6.026 HEAT: -127.2573
 CYCLE:    41 TIME:   0.031 TIME LEFT:  2.00D  GRAD.:     3.495 HEAT: -127.2683
 CYCLE:    42 TIME:   0.031 TIME LEFT:  2.00D  GRAD.:     3.134 HEAT: -127.2812
 CYCLE:    43 TIME:   0.023 TIME LEFT:  2.00D  GRAD.:     4.404 HEAT: -127.2901
 CYCLE:    44 TIME:   0.031 TIME LEFT:  2.00D  GRAD.:     4.023 HEAT: -127.3055
 CYCLE:    45 TIME:   0.039 TIME LEFT:  2.00D  GRAD.:     5.527 HEAT: -127.3171
 CYCLE:    46 TIME:   0.031 TIME LEFT:  2.00D  GRAD.:     2.706 HEAT: -127.3265
 CYCLE:    47 TIME:   0.031 TIME LEFT:  2.00D  GRAD.:     2.331 HEAT: -127.3318
 CYCLE:    48 TIME:   0.031 TIME LEFT:  2.00D  GRAD.:     2.749 HEAT: -127.3377
 CYCLE:    49 TIME:   0.031 TIME LEFT:  2.00D  GRAD.:     4.997 HEAT: -127.3469
 CYCLE:    50 TIME:   0.039 TIME LEFT:  2.00D  GRAD.:     2.681 HEAT: -127.3566
 CYCLE:    51 TIME:   0.023 TIME LEFT:  2.00D  GRAD.:     2.158 HEAT: -127.3626
 CYCLE:    52 TIME:   0.039 TIME LEFT:  2.00D  GRAD.:     3.113 HEAT: -127.3680
 CYCLE:    53 TIME:   0.031 TIME LEFT:  2.00D  GRAD.:     4.281 HEAT: -127.3731
 CYCLE:    54 TIME:   0.031 TIME LEFT:  2.00D  GRAD.:     2.636 HEAT: -127.3785
 CYCLE:    55 TIME:   0.031 TIME LEFT:  2.00D  GRAD.:     2.249 HEAT: -127.3859
 CYCLE:    56 TIME:   0.031 TIME LEFT:  2.00D  GRAD.:     2.449 HEAT: -127.3910
 CYCLE:    57 TIME:   0.031 TIME LEFT:  2.00D  GRAD.:     3.878 HEAT: -127.4000
 CYCLE:    58 TIME:   0.039 TIME LEFT:  2.00D  GRAD.:     2.597 HEAT: -127.4102
 CYCLE:    59 TIME:   0.047 TIME LEFT:  2.00D  GRAD.:     6.111 HEAT: -127.4139
 CYCLE:    60 TIME:   0.039 TIME LEFT:  2.00D  GRAD.:     3.270 HEAT: -127.4236
 CYCLE:    61 TIME:   0.039 TIME LEFT:  2.00D  GRAD.:     2.535 HEAT: -127.4305
 CYCLE:    62 TIME:   0.031 TIME LEFT:  2.00D  GRAD.:     2.847 HEAT: -127.4403
 CYCLE:    63 TIME:   0.023 TIME LEFT:  2.00D  GRAD.:     3.609 HEAT: -127.4481
 CYCLE:    64 TIME:   0.031 TIME LEFT:  2.00D  GRAD.:     2.694 HEAT: -127.4555
 CYCLE:    65 TIME:   0.031 TIME LEFT:  2.00D  GRAD.:     2.359 HEAT: -127.4611
 CYCLE:    66 TIME:   0.023 TIME LEFT:  2.00D  GRAD.:     4.082 HEAT: -127.4677
 CYCLE:    67 TIME:   0.031 TIME LEFT:  2.00D  GRAD.:     2.972 HEAT: -127.4754
 CYCLE:    68 TIME:   0.031 TIME LEFT:  2.00D  GRAD.:     2.699 HEAT: -127.4825
 CYCLE:    69 TIME:   0.023 TIME LEFT:  2.00D  GRAD.:     3.623 HEAT: -127.4920
 CYCLE:    70 TIME:   0.031 TIME LEFT:  2.00D  GRAD.:     9.190 HEAT: -127.4923
 CYCLE:    71 TIME:   0.031 TIME LEFT:  2.00D  GRAD.:     2.981 HEAT: -127.5044
 CYCLE:    72 TIME:   0.031 TIME LEFT:  2.00D  GRAD.:     2.169 HEAT: -127.5097
 CYCLE:    73 TIME:   0.023 TIME LEFT:  2.00D  GRAD.:     2.798 HEAT: -127.5165
 CYCLE:    74 TIME:   0.031 TIME LEFT:  2.00D  GRAD.:     4.187 HEAT: -127.5248
 CYCLE:    75 TIME:   0.039 TIME LEFT:  2.00D  GRAD.:     3.457 HEAT: -127.5332
 CYCLE:    76 TIME:   0.023 TIME LEFT:  2.00D  GRAD.:     2.108 HEAT: -127.5390
 CYCLE:    77 TIME:   0.031 TIME LEFT:  2.00D  GRAD.:     2.400 HEAT: -127.5449
 CYCLE:    78 TIME:   0.031 TIME LEFT:  2.00D  GRAD.:     3.799 HEAT: -127.5514
 CYCLE:    79 TIME:   0.031 TIME LEFT:  2.00D  GRAD.:     2.869 HEAT: -127.5605
 CYCLE:    80 TIME:   0.023 TIME LEFT:  2.00D  GRAD.:     2.788 HEAT: -127.5671
 CYCLE:    81 TIME:   0.031 TIME LEFT:  2.00D  GRAD.:     2.186 HEAT: -127.5725
 CYCLE:    82 TIME:   0.031 TIME LEFT:  2.00D  GRAD.:     1.957 HEAT: -127.5764
 CYCLE:    83 TIME:   0.031 TIME LEFT:  2.00D  GRAD.:     3.512 HEAT: -127.5819
 CYCLE:    84 TIME:   0.031 TIME LEFT:  2.00D  GRAD.:     2.793 HEAT: -127.5861
 CYCLE:    85 TIME:   0.031 TIME LEFT:  2.00D  GRAD.:     1.735 HEAT: -127.5885
 CYCLE:    86 TIME:   0.031 TIME LEFT:  2.00D  GRAD.:     1.558 HEAT: -127.5915
 CYCLE:    87 TIME:   0.023 TIME LEFT:  2.00D  GRAD.:     2.251 HEAT: -127.5947
 CYCLE:    88 TIME:   0.031 TIME LEFT:  2.00D  GRAD.:     2.197 HEAT: -127.5997
 CYCLE:    89 TIME:   0.039 TIME LEFT:  2.00D  GRAD.:     3.642 HEAT: -127.6066
 CYCLE:    90 TIME:   0.031 TIME LEFT:  2.00D  GRAD.:     2.602 HEAT: -127.6157
 CYCLE:    91 TIME:   0.031 TIME LEFT:  2.00D  GRAD.:     4.009 HEAT: -127.6258
 CYCLE:    92 TIME:   0.039 TIME LEFT:  2.00D  GRAD.:     4.691 HEAT: -127.6346
 CYCLE:    93 TIME:   0.031 TIME LEFT:  2.00D  GRAD.:     3.141 HEAT: -127.6428
 CYCLE:    94 TIME:   0.055 TIME LEFT:  2.00D  GRAD.:     3.117 HEAT: -127.6557
 CYCLE:    95 TIME:   0.031 TIME LEFT:  2.00D  GRAD.:     4.292 HEAT: -127.6643
 CYCLE:    96 TIME:   0.031 TIME LEFT:  2.00D  GRAD.:     3.389 HEAT: -127.6744
 CYCLE:    97 TIME:   0.031 TIME LEFT:  2.00D  GRAD.:     3.737 HEAT: -127.6849
 CYCLE:    98 TIME:   0.039 TIME LEFT:  2.00D  GRAD.:     4.432 HEAT: -127.6938
 CYCLE:    99 TIME:   0.031 TIME LEFT:  2.00D  GRAD.:     3.184 HEAT: -127.7022
 CYCLE:   100 TIME:   0.031 TIME LEFT:  2.00D  GRAD.:     3.209 HEAT: -127.7118
 CYCLE:   101 TIME:   0.023 TIME LEFT:  2.00D  GRAD.:     3.167 HEAT: -127.7200
 CYCLE:   102 TIME:   0.031 TIME LEFT:  2.00D  GRAD.:     2.452 HEAT: -127.7279
 CYCLE:   103 TIME:   0.039 TIME LEFT:  2.00D  GRAD.:     3.573 HEAT: -127.7354
 CYCLE:   104 TIME:   0.031 TIME LEFT:  2.00D  GRAD.:     2.489 HEAT: -127.7422
 CYCLE:   105 TIME:   0.031 TIME LEFT:  2.00D  GRAD.:     2.271 HEAT: -127.7482
 CYCLE:   106 TIME:   0.031 TIME LEFT:  2.00D  GRAD.:     3.722 HEAT: -127.7549
 CYCLE:   107 TIME:   0.031 TIME LEFT:  2.00D  GRAD.:     2.616 HEAT: -127.7603
 CYCLE:   108 TIME:   0.031 TIME LEFT:  2.00D  GRAD.:     2.384 HEAT: -127.7634
 CYCLE:   109 TIME:   0.031 TIME LEFT:  2.00D  GRAD.:     2.817 HEAT: -127.7693
 CYCLE:   110 TIME:   0.039 TIME LEFT:  2.00D  GRAD.:     6.600 HEAT: -127.7729
 CYCLE:   111 TIME:   0.031 TIME LEFT:  2.00D  GRAD.:     2.965 HEAT: -127.7809
 CYCLE:   112 TIME:   0.031 TIME LEFT:  2.00D  GRAD.:     2.276 HEAT: -127.7868
 CYCLE:   113 TIME:   0.023 TIME LEFT:  2.00D  GRAD.:     2.588 HEAT: -127.7911
 CYCLE:   114 TIME:   0.031 TIME LEFT:  2.00D  GRAD.:     3.875 HEAT: -127.8012
 CYCLE:   115 TIME:   0.031 TIME LEFT:  2.00D  GRAD.:     8.046 HEAT: -127.8028
 CYCLE:   116 TIME:   0.031 TIME LEFT:  2.00D  GRAD.:     2.845 HEAT: -127.8153
 CYCLE:   117 TIME:   0.023 TIME LEFT:  2.00D  GRAD.:     1.942 HEAT: -127.8192
 CYCLE:   118 TIME:   0.031 TIME LEFT:  2.00D  GRAD.:     2.419 HEAT: -127.8240
 CYCLE:   119 TIME:   0.023 TIME LEFT:  2.00D  GRAD.:     4.025 HEAT: -127.8346
 CYCLE:   120 TIME:   0.031 TIME LEFT:  2.00D  GRAD.:     4.249 HEAT: -127.8436
 CYCLE:   121 TIME:   0.039 TIME LEFT:  2.00D  GRAD.:     2.150 HEAT: -127.8513
 CYCLE:   122 TIME:   0.031 TIME LEFT:  2.00D  GRAD.:     2.306 HEAT: -127.8565
 CYCLE:   123 TIME:   0.023 TIME LEFT:  2.00D  GRAD.:     2.263 HEAT: -127.8627
 CYCLE:   124 TIME:   0.039 TIME LEFT:  2.00D  GRAD.:     8.325 HEAT: -127.8589
 CYCLE:   125 TIME:   0.047 TIME LEFT:  2.00D  GRAD.:     1.894 HEAT: -127.8718
 CYCLE:   126 TIME:   0.039 TIME LEFT:  2.00D  GRAD.:     1.436 HEAT: -127.8734
 CYCLE:   127 TIME:   0.047 TIME LEFT:  2.00D  GRAD.:     1.703 HEAT: -127.8767
 CYCLE:   128 TIME:   0.023 TIME LEFT:  2.00D  GRAD.:     3.892 HEAT: -127.8799
 CYCLE:   129 TIME:   0.039 TIME LEFT:  2.00D  GRAD.:     2.127 HEAT: -127.8834
 CYCLE:   130 TIME:   0.023 TIME LEFT:  2.00D  GRAD.:     1.673 HEAT: -127.8867
 CYCLE:   131 TIME:   0.031 TIME LEFT:  2.00D  GRAD.:     2.115 HEAT: -127.8896
 CYCLE:   132 TIME:   0.031 TIME LEFT:  2.00D  GRAD.:     3.894 HEAT: -127.8959
 CYCLE:   133 TIME:   0.039 TIME LEFT:  2.00D  GRAD.:     3.971 HEAT: -127.9021
 CYCLE:   134 TIME:   0.031 TIME LEFT:  2.00D  GRAD.:     2.479 HEAT: -127.9078
 CYCLE:   135 TIME:   0.031 TIME LEFT:  2.00D  GRAD.:     3.134 HEAT: -127.9166
 CYCLE:   136 TIME:   0.023 TIME LEFT:  2.00D  GRAD.:     3.887 HEAT: -127.9228
 CYCLE:   137 TIME:   0.031 TIME LEFT:  2.00D  GRAD.:     3.883 HEAT: -127.9334
 CYCLE:   138 TIME:   0.031 TIME LEFT:  2.00D  GRAD.:     4.554 HEAT: -127.9418
 CYCLE:   139 TIME:   0.031 TIME LEFT:  2.00D  GRAD.:     2.959 HEAT: -127.9501
 CYCLE:   140 TIME:   0.031 TIME LEFT:  2.00D  GRAD.:     2.816 HEAT: -127.9587
 CYCLE:   141 TIME:   0.023 TIME LEFT:  2.00D  GRAD.:     3.731 HEAT: -127.9661
 CYCLE:   142 TIME:   0.031 TIME LEFT:  2.00D  GRAD.:     4.359 HEAT: -127.9725
 CYCLE:   143 TIME:   0.039 TIME LEFT:  2.00D  GRAD.:     2.362 HEAT: -127.9786
 CYCLE:   144 TIME:   0.031 TIME LEFT:  2.00D  GRAD.:     2.813 HEAT: -127.9845
 CYCLE:   145 TIME:   0.023 TIME LEFT:  2.00D  GRAD.:     3.336 HEAT: -127.9924
 CYCLE:   146 TIME:   0.031 TIME LEFT:  2.00D  GRAD.:     6.143 HEAT: -128.0037
 CYCLE:   147 TIME:   0.031 TIME LEFT:  2.00D  GRAD.:     3.217 HEAT: -128.0149
 CYCLE:   148 TIME:   0.031 TIME LEFT:  2.00D  GRAD.:     2.169 HEAT: -128.0209
 CYCLE:   149 TIME:   0.031 TIME LEFT:  2.00D  GRAD.:     3.068 HEAT: -128.0282
 CYCLE:   150 TIME:   0.031 TIME LEFT:  2.00D  GRAD.:     3.875 HEAT: -128.0353
 CYCLE:   151 TIME:   0.031 TIME LEFT:  2.00D  GRAD.:     3.696 HEAT: -128.0448
 CYCLE:   152 TIME:   0.031 TIME LEFT:  2.00D  GRAD.:     3.889 HEAT: -128.0512
 CYCLE:   153 TIME:   0.039 TIME LEFT:  2.00D  GRAD.:     2.345 HEAT: -128.0565
 CYCLE:   154 TIME:   0.031 TIME LEFT:  2.00D  GRAD.:     2.127 HEAT: -128.0615
 CYCLE:   155 TIME:   0.031 TIME LEFT:  2.00D  GRAD.:     3.045 HEAT: -128.0674
 CYCLE:   156 TIME:   0.031 TIME LEFT:  2.00D  GRAD.:     2.971 HEAT: -128.0723
 CYCLE:   157 TIME:   0.031 TIME LEFT:  2.00D  GRAD.:     1.977 HEAT: -128.0758
 CYCLE:   158 TIME:   0.047 TIME LEFT:  2.00D  GRAD.:     1.790 HEAT: -128.0790
 CYCLE:   159 TIME:   0.047 TIME LEFT:  2.00D  GRAD.:     2.259 HEAT: -128.0824
 CYCLE:   160 TIME:   0.086 TIME LEFT:  2.00D  GRAD.:     2.363 HEAT: -128.0879
 CYCLE:   161 TIME:   0.031 TIME LEFT:  2.00D  GRAD.:     4.115 HEAT: -128.0912
 CYCLE:   162 TIME:   0.031 TIME LEFT:  2.00D  GRAD.:     1.956 HEAT: -128.0956
 CYCLE:   163 TIME:   0.023 TIME LEFT:  2.00D  GRAD.:     1.812 HEAT: -128.0990
 CYCLE:   164 TIME:   0.031 TIME LEFT:  2.00D  GRAD.:     2.322 HEAT: -128.1035
 CYCLE:   165 TIME:   0.023 TIME LEFT:  2.00D  GRAD.:     3.166 HEAT: -128.1133
 CYCLE:   166 TIME:   0.031 TIME LEFT:  2.00D  GRAD.:     5.922 HEAT: -128.1189
 CYCLE:   167 TIME:   0.031 TIME LEFT:  2.00D  GRAD.:     3.480 HEAT: -128.1319
 CYCLE:   168 TIME:   0.031 TIME LEFT:  2.00D  GRAD.:     2.762 HEAT: -128.1429
 CYCLE:   169 TIME:   0.031 TIME LEFT:  2.00D  GRAD.:     3.790 HEAT: -128.1537
 CYCLE:   170 TIME:   0.031 TIME LEFT:  2.00D  GRAD.:     4.178 HEAT: -128.1639
 CYCLE:   171 TIME:   0.031 TIME LEFT:  2.00D  GRAD.:     6.070 HEAT: -128.1725
 CYCLE:   172 TIME:   0.031 TIME LEFT:  2.00D  GRAD.:     3.538 HEAT: -128.1836
 CYCLE:   173 TIME:   0.023 TIME LEFT:  2.00D  GRAD.:     4.031 HEAT: -128.1887
 CYCLE:   174 TIME:   0.031 TIME LEFT:  2.00D  GRAD.:     5.399 HEAT: -128.1946
 CYCLE:   175 TIME:   0.031 TIME LEFT:  2.00D  GRAD.:     3.172 HEAT: -128.2033
 CYCLE:   176 TIME:   0.023 TIME LEFT:  2.00D  GRAD.:     2.678 HEAT: -128.2134
 CYCLE:   177 TIME:   0.031 TIME LEFT:  2.00D  GRAD.:     3.638 HEAT: -128.2229
 CYCLE:   178 TIME:   0.031 TIME LEFT:  2.00D  GRAD.:     7.432 HEAT: -128.2302
 CYCLE:   179 TIME:   0.031 TIME LEFT:  2.00D  GRAD.:     3.536 HEAT: -128.2415
 CYCLE:   180 TIME:   0.031 TIME LEFT:  2.00D  GRAD.:     3.652 HEAT: -128.2539
 CYCLE:   181 TIME:   0.031 TIME LEFT:  2.00D  GRAD.:     4.384 HEAT: -128.2651
 CYCLE:   182 TIME:   0.023 TIME LEFT:  2.00D  GRAD.:     5.884 HEAT: -128.2746
 CYCLE:   183 TIME:   0.031 TIME LEFT:  2.00D  GRAD.:    11.263 HEAT: -128.2622
 CYCLE:   184 TIME:   0.031 TIME LEFT:  2.00D  GRAD.:     5.602 HEAT: -128.3030
 CYCLE:   185 TIME:   0.023 TIME LEFT:  2.00D  GRAD.:     3.006 HEAT: -128.3131
 CYCLE:   186 TIME:   0.039 TIME LEFT:  2.00D  GRAD.:     3.349 HEAT: -128.3227
 CYCLE:   187 TIME:   0.031 TIME LEFT:  2.00D  GRAD.:     4.901 HEAT: -128.3474
 CYCLE:   188 TIME:   0.031 TIME LEFT:  2.00D  GRAD.:    15.022 HEAT: -128.3394
 CYCLE:   189 TIME:   0.039 TIME LEFT:  2.00D  GRAD.:     3.041 HEAT: -128.3694
 CYCLE:   190 TIME:   0.039 TIME LEFT:  2.00D  GRAD.:     3.448 HEAT: -128.3748
 CYCLE:   191 TIME:   0.047 TIME LEFT:  2.00D  GRAD.:     2.854 HEAT: -128.3847
 CYCLE:   192 TIME:   0.031 TIME LEFT:  2.00D  GRAD.:     2.453 HEAT: -128.3911
 CYCLE:   193 TIME:   0.031 TIME LEFT:  2.00D  GRAD.:     2.014 HEAT: -128.3965
 CYCLE:   194 TIME:   0.039 TIME LEFT:  2.00D  GRAD.:     2.697 HEAT: -128.4002
 CYCLE:   195 TIME:   0.023 TIME LEFT:  2.00D  GRAD.:     1.940 HEAT: -128.4036
 CYCLE:   196 TIME:   0.039 TIME LEFT:  2.00D  GRAD.:     1.822 HEAT: -128.4067
 CYCLE:   197 TIME:   0.031 TIME LEFT:  2.00D  GRAD.:     2.110 HEAT: -128.4107
 CYCLE:   198 TIME:   0.031 TIME LEFT:  2.00D  GRAD.:     3.109 HEAT: -128.4148
 CYCLE:   199 TIME:   0.031 TIME LEFT:  2.00D  GRAD.:     1.773 HEAT: -128.4185
 CYCLE:   200 TIME:   0.039 TIME LEFT:  2.00D  GRAD.:     1.533 HEAT: -128.4209
 CYCLE:   201 TIME:   0.031 TIME LEFT:  2.00D  GRAD.:     1.852 HEAT: -128.4237
 CYCLE:   202 TIME:   0.031 TIME LEFT:  2.00D  GRAD.:     1.945 HEAT: -128.4265
 CYCLE:   203 TIME:   0.023 TIME LEFT:  2.00D  GRAD.:     1.769 HEAT: -128.4291
 CYCLE:   204 TIME:   0.031 TIME LEFT:  2.00D  GRAD.:     1.395 HEAT: -128.4310
 CYCLE:   205 TIME:   0.031 TIME LEFT:  2.00D  GRAD.:     1.190 HEAT: -128.4327
 CYCLE:   206 TIME:   0.039 TIME LEFT:  2.00D  GRAD.:     2.153 HEAT: -128.4344
 CYCLE:   207 TIME:   0.023 TIME LEFT:  2.00D  GRAD.:     1.179 HEAT: -128.4361
 CYCLE:   208 TIME:   0.039 TIME LEFT:  2.00D  GRAD.:     1.116 HEAT: -128.4373
 CYCLE:   209 TIME:   0.031 TIME LEFT:  2.00D  GRAD.:     1.362 HEAT: -128.4389
 CYCLE:   210 TIME:   0.031 TIME LEFT:  2.00D  GRAD.:     2.762 HEAT: -128.4401
 CYCLE:   211 TIME:   0.023 TIME LEFT:  2.00D  GRAD.:     1.108 HEAT: -128.4420
 CYCLE:   212 TIME:   0.039 TIME LEFT:  2.00D  GRAD.:     1.036 HEAT: -128.4432
 CYCLE:   213 TIME:   0.031 TIME LEFT:  2.00D  GRAD.:     1.132 HEAT: -128.4442
 CYCLE:   214 TIME:   0.031 TIME LEFT:  2.00D  GRAD.:     1.766 HEAT: -128.4459
 CYCLE:   215 TIME:   0.031 TIME LEFT:  2.00D  GRAD.:     1.956 HEAT: -128.4469
 CYCLE:   216 TIME:   0.023 TIME LEFT:  2.00D  GRAD.:     0.861 HEAT: -128.4479
 CYCLE:   217 TIME:   0.031 TIME LEFT:  2.00D  GRAD.:     0.862 HEAT: -128.4484
 CYCLE:   218 TIME:   0.031 TIME LEFT:  2.00D  GRAD.:     1.315 HEAT: -128.4492
 CYCLE:   219 TIME:   0.039 TIME LEFT:  2.00D  GRAD.:     1.316 HEAT: -128.4503
 CYCLE:   220 TIME:   0.023 TIME LEFT:  2.00D  GRAD.:     0.909 HEAT: -128.4513
 CYCLE:   221 TIME:   0.031 TIME LEFT:  2.00D  GRAD.:     1.362 HEAT: -128.4523
 CYCLE:   222 TIME:   0.047 TIME LEFT:  2.00D  GRAD.:     1.133 HEAT: -128.4530
 CYCLE:   223 TIME:   0.031 TIME LEFT:  2.00D  GRAD.:     0.971 HEAT: -128.4537
 CYCLE:   224 TIME:   0.039 TIME LEFT:  2.00D  GRAD.:     1.873 HEAT: -128.4546
 CYCLE:   225 TIME:   0.031 TIME LEFT:  2.00D  GRAD.:     0.817 HEAT: -128.4554
 CYCLE:   226 TIME:   0.039 TIME LEFT:  2.00D  GRAD.:     0.722 HEAT: -128.4558
 CYCLE:   227 TIME:   0.031 TIME LEFT:  2.00D  GRAD.:     0.947 HEAT: -128.4567
 CYCLE:   228 TIME:   0.031 TIME LEFT:  2.00D  GRAD.:     1.573 HEAT: -128.4572
 CYCLE:   229 TIME:   0.031 TIME LEFT:  2.00D  GRAD.:     0.801 HEAT: -128.4578
 CYCLE:   230 TIME:   0.023 TIME LEFT:  2.00D  GRAD.:     0.686 HEAT: -128.4585
 CYCLE:   231 TIME:   0.031 TIME LEFT:  2.00D  GRAD.:     0.734 HEAT: -128.4590
 CYCLE:   232 TIME:   0.023 TIME LEFT:  2.00D  GRAD.:     1.286 HEAT: -128.4599
 CYCLE:   233 TIME:   0.039 TIME LEFT:  2.00D  GRAD.:     2.272 HEAT: -128.4601
 CYCLE:   234 TIME:   0.023 TIME LEFT:  2.00D  GRAD.:     0.585 HEAT: -128.4609
 CYCLE:   235 TIME:   0.031 TIME LEFT:  2.00D  GRAD.:     0.599 HEAT: -128.4612
 CYCLE:   236 TIME:   0.039 TIME LEFT:  2.00D  GRAD.:     0.770 HEAT: -128.4618
 CYCLE:   237 TIME:   0.031 TIME LEFT:  2.00D  GRAD.:     1.453 HEAT: -128.4627
 CYCLE:   238 TIME:   0.039 TIME LEFT:  2.00D  GRAD.:     1.138 HEAT: -128.4637
 CYCLE:   239 TIME:   0.023 TIME LEFT:  2.00D  GRAD.:     0.813 HEAT: -128.4644
 CYCLE:   240 TIME:   0.031 TIME LEFT:  2.00D  GRAD.:     1.025 HEAT: -128.4653
 CYCLE:   241 TIME:   0.031 TIME LEFT:  2.00D  GRAD.:     1.520 HEAT: -128.4661
 CYCLE:   242 TIME:   0.023 TIME LEFT:  2.00D  GRAD.:     1.156 HEAT: -128.4672
 CYCLE:   243 TIME:   0.031 TIME LEFT:  2.00D  GRAD.:     1.003 HEAT: -128.4685
 CYCLE:   244 TIME:   0.031 TIME LEFT:  2.00D  GRAD.:     1.296 HEAT: -128.4690
 CYCLE:   245 TIME:   0.031 TIME LEFT:  2.00D  GRAD.:     0.792 HEAT: -128.4695
 CYCLE:   246 TIME:   0.039 TIME LEFT:  2.00D  GRAD.:     0.935 HEAT: -128.4704
 CYCLE:   247 TIME:   0.031 TIME LEFT:  2.00D  GRAD.:     1.291 HEAT: -128.4716
 CYCLE:   248 TIME:   0.031 TIME LEFT:  2.00D  GRAD.:     2.037 HEAT: -128.4730
 CYCLE:   249 TIME:   0.031 TIME LEFT:  2.00D  GRAD.:     1.556 HEAT: -128.4745
 CYCLE:   250 TIME:   0.031 TIME LEFT:  2.00D  GRAD.:     1.284 HEAT: -128.4761
 CYCLE:   251 TIME:   0.031 TIME LEFT:  2.00D  GRAD.:     1.524 HEAT: -128.4781
 CYCLE:   252 TIME:   0.039 TIME LEFT:  2.00D  GRAD.:     2.070 HEAT: -128.4800
 CYCLE:   253 TIME:   0.031 TIME LEFT:  2.00D  GRAD.:     1.137 HEAT: -128.4812
 CYCLE:   254 TIME:   0.047 TIME LEFT:  2.00D  GRAD.:     1.071 HEAT: -128.4823
 CYCLE:   255 TIME:   0.031 TIME LEFT:  2.00D  GRAD.:     1.511 HEAT: -128.4835
 CYCLE:   256 TIME:   0.055 TIME LEFT:  2.00D  GRAD.:     1.883 HEAT: -128.4846
 CYCLE:   257 TIME:   0.031 TIME LEFT:  2.00D  GRAD.:     1.070 HEAT: -128.4858
 CYCLE:   258 TIME:   0.031 TIME LEFT:  2.00D  GRAD.:     0.944 HEAT: -128.4869
 CYCLE:   259 TIME:   0.031 TIME LEFT:  2.00D  GRAD.:     1.418 HEAT: -128.4880
 CYCLE:   260 TIME:   0.031 TIME LEFT:  2.00D  GRAD.:     1.562 HEAT: -128.4892
 CYCLE:   261 TIME:   0.031 TIME LEFT:  2.00D  GRAD.:     0.975 HEAT: -128.4904
 CYCLE:   262 TIME:   0.023 TIME LEFT:  2.00D  GRAD.:     1.093 HEAT: -128.4912
 CYCLE:   263 TIME:   0.031 TIME LEFT:  2.00D  GRAD.:     1.957 HEAT: -128.4917
 CYCLE:   264 TIME:   0.031 TIME LEFT:  2.00D  GRAD.:     0.780 HEAT: -128.4922
 CYCLE:   265 TIME:   0.031 TIME LEFT:  2.00D  GRAD.:     0.713 HEAT: -128.4926
 CYCLE:   266 TIME:   0.031 TIME LEFT:  2.00D  GRAD.:     0.760 HEAT: -128.4930
 CYCLE:   267 TIME:   0.023 TIME LEFT:  2.00D  GRAD.:     0.802 HEAT: -128.4937
 CYCLE:   268 TIME:   0.031 TIME LEFT:  2.00D  GRAD.:     3.455 HEAT: -128.4929
 CYCLE:   269 TIME:   0.023 TIME LEFT:  2.00D  GRAD.:     0.821 HEAT: -128.4947
 CYCLE:   270 TIME:   0.031 TIME LEFT:  2.00D  GRAD.:     0.583 HEAT: -128.4951
 CYCLE:   271 TIME:   0.031 TIME LEFT:  2.00D  GRAD.:     0.907 HEAT: -128.4959
 CYCLE:   272 TIME:   0.039 TIME LEFT:  2.00D  GRAD.:     1.339 HEAT: -128.4967
 CYCLE:   273 TIME:   0.031 TIME LEFT:  2.00D  GRAD.:     1.611 HEAT: -128.4980
 CYCLE:   274 TIME:   0.023 TIME LEFT:  2.00D  GRAD.:     1.237 HEAT: -128.4995
 CYCLE:   275 TIME:   0.031 TIME LEFT:  2.00D  GRAD.:     1.152 HEAT: -128.5009
 CYCLE:   276 TIME:   0.031 TIME LEFT:  2.00D  GRAD.:     1.508 HEAT: -128.5022
 CYCLE:   277 TIME:   0.031 TIME LEFT:  2.00D  GRAD.:     1.681 HEAT: -128.5039
 CYCLE:   278 TIME:   0.023 TIME LEFT:  2.00D  GRAD.:     1.573 HEAT: -128.5058
 CYCLE:   279 TIME:   0.039 TIME LEFT:  2.00D  GRAD.:     1.285 HEAT: -128.5072
 CYCLE:   280 TIME:   0.023 TIME LEFT:  2.00D  GRAD.:     1.093 HEAT: -128.5080
 CYCLE:   281 TIME:   0.039 TIME LEFT:  2.00D  GRAD.:     1.118 HEAT: -128.5092
 CYCLE:   282 TIME:   0.023 TIME LEFT:  2.00D  GRAD.:     1.847 HEAT: -128.5112
 CYCLE:   283 TIME:   0.031 TIME LEFT:  2.00D  GRAD.:     1.608 HEAT: -128.5126
 CYCLE:   284 TIME:   0.031 TIME LEFT:  2.00D  GRAD.:     0.983 HEAT: -128.5137
 CYCLE:   285 TIME:   0.031 TIME LEFT:  2.00D  GRAD.:     1.434 HEAT: -128.5148
 CYCLE:   286 TIME:   0.031 TIME LEFT:  2.00D  GRAD.:     1.197 HEAT: -128.5156
 CYCLE:   287 TIME:   0.039 TIME LEFT:  2.00D  GRAD.:     0.881 HEAT: -128.5163
 CYCLE:   288 TIME:   0.055 TIME LEFT:  2.00D  GRAD.:     0.797 HEAT: -128.5170
 CYCLE:   289 TIME:   0.047 TIME LEFT:  2.00D  GRAD.:     1.443 HEAT: -128.5177
 CYCLE:   290 TIME:   0.031 TIME LEFT:  2.00D  GRAD.:     0.854 HEAT: -128.5186
 CYCLE:   291 TIME:   0.039 TIME LEFT:  2.00D  GRAD.:     0.749 HEAT: -128.5192
 CYCLE:   292 TIME:   0.023 TIME LEFT:  2.00D  GRAD.:     1.176 HEAT: -128.5201
 CYCLE:   293 TIME:   0.039 TIME LEFT:  2.00D  GRAD.:     0.915 HEAT: -128.5209
 CYCLE:   294 TIME:   0.023 TIME LEFT:  2.00D  GRAD.:     0.884 HEAT: -128.5216
 CYCLE:   295 TIME:   0.031 TIME LEFT:  2.00D  GRAD.:     1.730 HEAT: -128.5223
 CYCLE:   296 TIME:   0.031 TIME LEFT:  2.00D  GRAD.:     1.034 HEAT: -128.5233
 CYCLE:   297 TIME:   0.023 TIME LEFT:  2.00D  GRAD.:     0.937 HEAT: -128.5241
 CYCLE:   298 TIME:   0.039 TIME LEFT:  2.00D  GRAD.:     1.621 HEAT: -128.5253
 CYCLE:   299 TIME:   0.023 TIME LEFT:  2.00D  GRAD.:     1.617 HEAT: -128.5261
 CYCLE:   300 TIME:   0.031 TIME LEFT:  2.00D  GRAD.:     0.970 HEAT: -128.5268
 CYCLE:   301 TIME:   0.031 TIME LEFT:  2.00D  GRAD.:     1.068 HEAT: -128.5277
 CYCLE:   302 TIME:   0.023 TIME LEFT:  2.00D  GRAD.:     1.619 HEAT: -128.5288
 CYCLE:   303 TIME:   0.031 TIME LEFT:  2.00D  GRAD.:     1.889 HEAT: -128.5307
 CYCLE:   304 TIME:   0.031 TIME LEFT:  2.00D  GRAD.:     2.400 HEAT: -128.5323
 CYCLE:   305 TIME:   0.023 TIME LEFT:  2.00D  GRAD.:     1.016 HEAT: -128.5338
 CYCLE:   306 TIME:   0.031 TIME LEFT:  2.00D  GRAD.:     1.131 HEAT: -128.5347
 CYCLE:   307 TIME:   0.031 TIME LEFT:  2.00D  GRAD.:     1.436 HEAT: -128.5359
 CYCLE:   308 TIME:   0.031 TIME LEFT:  2.00D  GRAD.:     1.841 HEAT: -128.5375
 CYCLE:   309 TIME:   0.031 TIME LEFT:  2.00D  GRAD.:     1.945 HEAT: -128.5396
 CYCLE:   310 TIME:   0.031 TIME LEFT:  2.00D  GRAD.:     1.771 HEAT: -128.5413
 CYCLE:   311 TIME:   0.031 TIME LEFT:  2.00D  GRAD.:     1.356 HEAT: -128.5431
 CYCLE:   312 TIME:   0.031 TIME LEFT:  2.00D  GRAD.:     2.150 HEAT: -128.5445
 CYCLE:   313 TIME:   0.031 TIME LEFT:  2.00D  GRAD.:     1.908 HEAT: -128.5460
 CYCLE:   314 TIME:   0.031 TIME LEFT:  2.00D  GRAD.:     2.085 HEAT: -128.5476
 CYCLE:   315 TIME:   0.039 TIME LEFT:  2.00D  GRAD.:     1.363 HEAT: -128.5495
 CYCLE:   316 TIME:   0.023 TIME LEFT:  2.00D  GRAD.:     1.364 HEAT: -128.5510
 CYCLE:   317 TIME:   0.039 TIME LEFT:  2.00D  GRAD.:     1.371 HEAT: -128.5522
 CYCLE:   318 TIME:   0.031 TIME LEFT:  2.00D  GRAD.:     1.393 HEAT: -128.5540
 CYCLE:   319 TIME:   0.039 TIME LEFT:  2.00D  GRAD.:     1.574 HEAT: -128.5546
 CYCLE:   320 TIME:   0.047 TIME LEFT:  2.00D  GRAD.:     3.529 HEAT: -128.5546
 CYCLE:   321 TIME:   0.039 TIME LEFT:  2.00D  GRAD.:     0.892 HEAT: -128.5568
 CYCLE:   322 TIME:   0.039 TIME LEFT:  2.00D  GRAD.:     0.732 HEAT: -128.5572
 CYCLE:   323 TIME:   0.031 TIME LEFT:  2.00D  GRAD.:     0.803 HEAT: -128.5581
 CYCLE:   324 TIME:   0.031 TIME LEFT:  2.00D  GRAD.:     1.986 HEAT: -128.5585
 CYCLE:   325 TIME:   0.023 TIME LEFT:  2.00D  GRAD.:     0.732 HEAT: -128.5594
 CYCLE:   326 TIME:   0.039 TIME LEFT:  2.00D  GRAD.:     0.691 HEAT: -128.5597
 CYCLE:   327 TIME:   0.023 TIME LEFT:  2.00D  GRAD.:     1.135 HEAT: -128.5607
 CYCLE:   328 TIME:   0.031 TIME LEFT:  2.00D  GRAD.:     1.421 HEAT: -128.5618
 CYCLE:   329 TIME:   0.031 TIME LEFT:  2.00D  GRAD.:     2.889 HEAT: -128.5621
 CYCLE:   330 TIME:   0.023 TIME LEFT:  2.00D  GRAD.:     0.830 HEAT: -128.5637
 CYCLE:   331 TIME:   0.031 TIME LEFT:  2.00D  GRAD.:     0.765 HEAT: -128.5642
 CYCLE:   332 TIME:   0.031 TIME LEFT:  2.00D  GRAD.:     1.119 HEAT: -128.5651
 CYCLE:   333 TIME:   0.031 TIME LEFT:  2.00D  GRAD.:     1.589 HEAT: -128.5657
 CYCLE:   334 TIME:   0.031 TIME LEFT:  2.00D  GRAD.:     2.482 HEAT: -128.5668
 CYCLE:   335 TIME:   0.031 TIME LEFT:  2.00D  GRAD.:     0.935 HEAT: -128.5679
 CYCLE:   336 TIME:   0.031 TIME LEFT:  2.00D  GRAD.:     0.907 HEAT: -128.5685
 CYCLE:   337 TIME:   0.023 TIME LEFT:  2.00D  GRAD.:     1.238 HEAT: -128.5691
 CYCLE:   338 TIME:   0.031 TIME LEFT:  2.00D  GRAD.:     1.266 HEAT: -128.5701
 CYCLE:   339 TIME:   0.023 TIME LEFT:  2.00D  GRAD.:     2.103 HEAT: -128.5709
 CYCLE:   340 TIME:   0.031 TIME LEFT:  2.00D  GRAD.:     0.760 HEAT: -128.5719
 CYCLE:   341 TIME:   0.039 TIME LEFT:  2.00D  GRAD.:     0.830 HEAT: -128.5722
 CYCLE:   342 TIME:   0.023 TIME LEFT:  2.00D  GRAD.:     0.635 HEAT: -128.5727
 CYCLE:   343 TIME:   0.031 TIME LEFT:  2.00D  GRAD.:     0.746 HEAT: -128.5735
 CYCLE:   344 TIME:   0.031 TIME LEFT:  2.00D  GRAD.:     1.228 HEAT: -128.5738
 CYCLE:   345 TIME:   0.023 TIME LEFT:  2.00D  GRAD.:     0.639 HEAT: -128.5742
 CYCLE:   346 TIME:   0.031 TIME LEFT:  2.00D  GRAD.:     0.598 HEAT: -128.5746
 CYCLE:   347 TIME:   0.031 TIME LEFT:  2.00D  GRAD.:     0.671 HEAT: -128.5750
 CYCLE:   348 TIME:   0.031 TIME LEFT:  2.00D  GRAD.:     0.803 HEAT: -128.5756
 CYCLE:   349 TIME:   0.031 TIME LEFT:  2.00D  GRAD.:     1.772 HEAT: -128.5757
 CYCLE:   350 TIME:   0.031 TIME LEFT:  2.00D  GRAD.:     0.554 HEAT: -128.5763
 CYCLE:   351 TIME:   0.039 TIME LEFT:  2.00D  GRAD.:     0.521 HEAT: -128.5765
 CYCLE:   352 TIME:   0.031 TIME LEFT:  2.00D  GRAD.:     0.608 HEAT: -128.5768
 CYCLE:   353 TIME:   0.047 TIME LEFT:  2.00D  GRAD.:     1.394 HEAT: -128.5770
 CYCLE:   354 TIME:   0.039 TIME LEFT:  2.00D  GRAD.:     0.469 HEAT: -128.5775
 CYCLE:   355 TIME:   0.055 TIME LEFT:  2.00D  GRAD.:     0.329 HEAT: -128.5776
 CYCLE:   356 TIME:   0.023 TIME LEFT:  2.00D  GRAD.:     0.401 HEAT: -128.5777
 CYCLE:   357 TIME:   0.031 TIME LEFT:  2.00D  GRAD.:     0.526 HEAT: -128.5779
 CYCLE:   358 TIME:   0.031 TIME LEFT:  2.00D  GRAD.:     0.493 HEAT: -128.5781
 CYCLE:   359 TIME:   0.031 TIME LEFT:  2.00D  GRAD.:     0.792 HEAT: -128.5784
 CYCLE:   360 TIME:   0.023 TIME LEFT:  2.00D  GRAD.:     0.390 HEAT: -128.5786
 CYCLE:   361 TIME:   0.031 TIME LEFT:  2.00D  GRAD.:     0.393 HEAT: -128.5787
 CYCLE:   362 TIME:   0.031 TIME LEFT:  2.00D  GRAD.:     0.574 HEAT: -128.5789
 CYCLE:   363 TIME:   0.023 TIME LEFT:  2.00D  GRAD.:     0.778 HEAT: -128.5791
 CYCLE:   364 TIME:   0.031 TIME LEFT:  2.00D  GRAD.:     0.420 HEAT: -128.5792
 CYCLE:   365 TIME:   0.031 TIME LEFT:  2.00D  GRAD.:     0.405 HEAT: -128.5794
 CYCLE:   366 TIME:   0.031 TIME LEFT:  2.00D  GRAD.:     0.549 HEAT: -128.5795
 CYCLE:   367 TIME:   0.031 TIME LEFT:  2.00D  GRAD.:     0.973 HEAT: -128.5798
 CYCLE:   368 TIME:   0.031 TIME LEFT:  2.00D  GRAD.:     0.476 HEAT: -128.5800
 CYCLE:   369 TIME:   0.031 TIME LEFT:  2.00D  GRAD.:     0.436 HEAT: -128.5802
 CYCLE:   370 TIME:   0.031 TIME LEFT:  2.00D  GRAD.:     0.554 HEAT: -128.5804
 CYCLE:   371 TIME:   0.023 TIME LEFT:  2.00D  GRAD.:     0.940 HEAT: -128.5806
 CYCLE:   372 TIME:   0.031 TIME LEFT:  2.00D  GRAD.:     0.585 HEAT: -128.5809
 CYCLE:   373 TIME:   0.031 TIME LEFT:  2.00D  GRAD.:     0.460 HEAT: -128.5812
 CYCLE:   374 TIME:   0.031 TIME LEFT:  2.00D  GRAD.:     0.626 HEAT: -128.5815
 CYCLE:   375 TIME:   0.023 TIME LEFT:  2.00D  GRAD.:     0.782 HEAT: -128.5818
 CYCLE:   376 TIME:   0.031 TIME LEFT:  2.00D  GRAD.:     0.609 HEAT: -128.5821
 CYCLE:   377 TIME:   0.031 TIME LEFT:  2.00D  GRAD.:     0.524 HEAT: -128.5823
 CYCLE:   378 TIME:   0.031 TIME LEFT:  2.00D  GRAD.:     0.462 HEAT: -128.5825
 CYCLE:   379 TIME:   0.023 TIME LEFT:  2.00D  GRAD.:     0.515 HEAT: -128.5827
 CYCLE:   380 TIME:   0.031 TIME LEFT:  2.00D  GRAD.:     0.828 HEAT: -128.5829
 CYCLE:   381 TIME:   0.031 TIME LEFT:  2.00D  GRAD.:     0.488 HEAT: -128.5832
 CYCLE:   382 TIME:   0.023 TIME LEFT:  2.00D  GRAD.:     0.478 HEAT: -128.5834
 CYCLE:   383 TIME:   0.039 TIME LEFT:  2.00D  GRAD.:     0.729 HEAT: -128.5836
 CYCLE:   384 TIME:   0.039 TIME LEFT:  2.00D  GRAD.:     0.471 HEAT: -128.5838
 CYCLE:   385 TIME:   0.023 TIME LEFT:  2.00D  GRAD.:     0.379 HEAT: -128.5839
 CYCLE:   386 TIME:   0.039 TIME LEFT:  2.00D  GRAD.:     0.548 HEAT: -128.5841
 CYCLE:   387 TIME:   0.047 TIME LEFT:  2.00D  GRAD.:     0.461 HEAT: -128.5842
 CYCLE:   388 TIME:   0.047 TIME LEFT:  2.00D  GRAD.:     0.310 HEAT: -128.5843
 CYCLE:   389 TIME:   0.023 TIME LEFT:  2.00D  GRAD.:     0.325 HEAT: -128.5844
 CYCLE:   390 TIME:   0.031 TIME LEFT:  2.00D  GRAD.:     0.334 HEAT: -128.5845
 CYCLE:   391 TIME:   0.039 TIME LEFT:  2.00D  GRAD.:     0.257 HEAT: -128.5846
 CYCLE:   392 TIME:   0.031 TIME LEFT:  2.00D  GRAD.:     0.456 HEAT: -128.5846
 CYCLE:   393 TIME:   0.031 TIME LEFT:  2.00D  GRAD.:     0.256 HEAT: -128.5847
 CYCLE:   394 TIME:   0.023 TIME LEFT:  2.00D  GRAD.:     0.259 HEAT: -128.5848
 CYCLE:   395 TIME:   0.039 TIME LEFT:  2.00D  GRAD.:     0.368 HEAT: -128.5849
 CYCLE:   396 TIME:   0.031 TIME LEFT:  2.00D  GRAD.:     0.529 HEAT: -128.5850
 CYCLE:   397 TIME:   0.039 TIME LEFT:  2.00D  GRAD.:     0.585 HEAT: -128.5851
 CYCLE:   398 TIME:   0.023 TIME LEFT:  2.00D  GRAD.:     0.519 HEAT: -128.5852
 CYCLE:   399 TIME:   0.031 TIME LEFT:  2.00D  GRAD.:     0.337 HEAT: -128.5854
 CYCLE:   400 TIME:   0.031 TIME LEFT:  2.00D  GRAD.:     0.377 HEAT: -128.5854
 CYCLE:   401 TIME:   0.039 TIME LEFT:  2.00D  GRAD.:     0.469 HEAT: -128.5856
 CYCLE:   402 TIME:   0.031 TIME LEFT:  2.00D  GRAD.:     0.883 HEAT: -128.5857
 CYCLE:   403 TIME:   0.031 TIME LEFT:  2.00D  GRAD.:     0.430 HEAT: -128.5859
 CYCLE:   404 TIME:   0.031 TIME LEFT:  2.00D  GRAD.:     0.392 HEAT: -128.5860
 CYCLE:   405 TIME:   0.023 TIME LEFT:  2.00D  GRAD.:     0.515 HEAT: -128.5862
 CYCLE:   406 TIME:   0.023 TIME LEFT:  2.00D  GRAD.:     0.586 HEAT: -128.5864
 CYCLE:   407 TIME:   0.031 TIME LEFT:  2.00D  GRAD.:     1.087 HEAT: -128.5866
 CYCLE:   408 TIME:   0.031 TIME LEFT:  2.00D  GRAD.:     0.413 HEAT: -128.5869
 CYCLE:   409 TIME:   0.031 TIME LEFT:  2.00D  GRAD.:     0.421 HEAT: -128.5870
 CYCLE:   410 TIME:   0.031 TIME LEFT:  2.00D  GRAD.:     0.535 HEAT: -128.5872
 CYCLE:   411 TIME:   0.031 TIME LEFT:  2.00D  GRAD.:     0.608 HEAT: -128.5875
 CYCLE:   412 TIME:   0.039 TIME LEFT:  2.00D  GRAD.:     0.807 HEAT: -128.5877
 CYCLE:   413 TIME:   0.031 TIME LEFT:  2.00D  GRAD.:     0.436 HEAT: -128.5880
 CYCLE:   414 TIME:   0.031 TIME LEFT:  2.00D  GRAD.:     0.455 HEAT: -128.5881
 CYCLE:   415 TIME:   0.031 TIME LEFT:  2.00D  GRAD.:     0.623 HEAT: -128.5883
 CYCLE:   416 TIME:   0.031 TIME LEFT:  2.00D  GRAD.:     0.943 HEAT: -128.5884
 CYCLE:   417 TIME:   0.031 TIME LEFT:  2.00D  GRAD.:     0.437 HEAT: -128.5886
 CYCLE:   418 TIME:   0.031 TIME LEFT:  2.00D  GRAD.:     0.460 HEAT: -128.5887
 CYCLE:   419 TIME:   0.039 TIME LEFT:  2.00D  GRAD.:     0.437 HEAT: -128.5888
 CYCLE:   420 TIME:   0.047 TIME LEFT:  2.00D  GRAD.:     0.813 HEAT: -128.5890
 CYCLE:   421 TIME:   0.039 TIME LEFT:  2.00D  GRAD.:     0.426 HEAT: -128.5892
 CYCLE:   422 TIME:   0.039 TIME LEFT:  2.00D  GRAD.:     0.336 HEAT: -128.5893
 CYCLE:   423 TIME:   0.031 TIME LEFT:  2.00D  GRAD.:     0.363 HEAT: -128.5895
 CYCLE:   424 TIME:   0.031 TIME LEFT:  2.00D  GRAD.:     1.049 HEAT: -128.5896
 CYCLE:   425 TIME:   0.023 TIME LEFT:  2.00D  GRAD.:     0.480 HEAT: -128.5898
 CYCLE:   426 TIME:   0.031 TIME LEFT:  2.00D  GRAD.:     0.303 HEAT: -128.5899
 CYCLE:   427 TIME:   0.031 TIME LEFT:  2.00D  GRAD.:     0.431 HEAT: -128.5900
 CYCLE:   428 TIME:   0.023 TIME LEFT:  2.00D  GRAD.:     0.466 HEAT: -128.5901
 CYCLE:   429 TIME:   0.039 TIME LEFT:  2.00D  GRAD.:     1.482 HEAT: -128.5901
 CYCLE:   430 TIME:   0.031 TIME LEFT:  2.00D  GRAD.:     0.379 HEAT: -128.5905
 CYCLE:   431 TIME:   0.031 TIME LEFT:  2.00D  GRAD.:     0.260 HEAT: -128.5905
 CYCLE:   432 TIME:   0.031 TIME LEFT:  2.00D  GRAD.:     0.327 HEAT: -128.5906
 CYCLE:   433 TIME:   0.031 TIME LEFT:  2.00D  GRAD.:     0.427 HEAT: -128.5907
 CYCLE:   434 TIME:   0.031 TIME LEFT:  2.00D  GRAD.:     0.216 HEAT: -128.5907
 CYCLE:   435 TIME:   0.031 TIME LEFT:  2.00D  GRAD.:     0.211 HEAT: -128.5908
 CYCLE:   436 TIME:   0.031 TIME LEFT:  2.00D  GRAD.:     0.253 HEAT: -128.5908
 CYCLE:   437 TIME:   0.023 TIME LEFT:  2.00D  GRAD.:     0.673 HEAT: -128.5908
 CYCLE:   438 TIME:   0.031 TIME LEFT:  2.00D  GRAD.:     0.171 HEAT: -128.5909

 -------------------------------------------------------------------------------
 AUX LARGE CHARGE=0 SINGLET  PM6  OPT PRECISE PRTXYZ
 CN334.pdb
 40


     HERBERTS TEST WAS SATISFIED IN BFGS                      
     SCF FIELD WAS ACHIEVED                                   


                              PM6 CALCULATION
                                                       MOPAC2016 (Version: 20.225L)
                                                       Fri Aug 14 20:43:33 2020
                                                       No. of days remaining = 364




          FINAL HEAT OF FORMATION =       -128.59088 KCAL/MOL =    -538.02426 KJ/MOL


          TOTAL ENERGY            =      -3999.85649 EV
          ELECTRONIC ENERGY       =     -29988.86167 EV  POINT GROUP:     C1  
          CORE-CORE REPULSION     =      25989.00518 EV
          COSMO AREA              =        327.68 SQUARE ANGSTROMS
          COSMO VOLUME            =        379.01 CUBIC ANGSTROMS

          GRADIENT NORM           =          0.17129 = 0.02708 PER ATOM
          IONIZATION POTENTIAL    =          9.264833 EV
          HOMO LUMO ENERGIES (EV) =         -9.265 -1.206
          NO. OF FILLED LEVELS    =         61
          MOLECULAR WEIGHT        =        324.3324

          MOLECULAR DIMENSIONS (Angstroms)

            Atom       Atom       Distance
            H    37    H    31    11.38159
            H    38    O     9     7.98546
            H    34    H    25     6.16154


          SCF CALCULATIONS        =        439
 
          WALL-CLOCK TIME         =         14.109 SECONDS
          COMPUTATION TIME        =         26.797 SECONDS




   ATOM   CHEMICAL          X               Y               Z
  NUMBER   SYMBOL      (ANGSTROMS)     (ANGSTROMS)     (ANGSTROMS)
 
     1       C          6.69997259  *  -8.47418893  *  -0.91833752  *
     2       O          7.92126164  *  -9.18353447  *  -0.54358656  *
     3       C          7.82138446  * -10.51201350  *  -0.94121395  *
     4       C          6.53192234  * -10.68876113  *  -1.67452348  *
     5       O          5.91087405  *  -9.41546708  *  -1.67324970  *
     6       C          5.88956060  *  -8.11814687  *   0.35691790  *
     7       C          7.04762093  *  -7.27545543  *  -1.78617977  *
     8       C          7.82029149  *  -6.21573671  *  -1.04875109  *
     9       O          5.98901942  * -11.59771204  *  -2.22071144  *
    10       C          8.77071792  * -11.42630769  *  -0.69522979  *
    11       C         10.03188178  * -11.20640299  *   0.01284786  *
    12       C         10.51446172  *  -9.92025729  *   0.30799897  *
    13       C         11.72848118  *  -9.76111973  *   0.98162450  *
    14       C         12.47108676  * -10.87937870  *   1.36815622  *
    15       C         11.99800566  * -12.16463315  *   1.07658864  *
    16       C         10.78926556  * -12.33090073  *   0.40186385  *
    17       O          6.26335894  *  -8.95507762  *   1.36622764  *
    18       O          5.05598997  *  -7.25735232  *   0.46229871  *
    19       C          5.59189443  *  -8.76817651  *   2.64623303  *
    20       C          7.31325238  *  -4.91127097  *  -0.96609805  *
    21       C          8.04691548  *  -3.91867741  *  -0.30962570  *
    22       C          9.28307958  *  -4.22270796  *   0.26785980  *
    23       C          9.78513395  *  -5.52646091  *   0.19302784  *
    24       C          9.05782101  *  -6.52154620  *  -0.46238876  *
    25       H          7.63387170  *  -7.61913302  *  -2.66967683  *
    26       H          6.09882456  *  -6.86597766  *  -2.20928628  *
    27       H          8.59681421  * -12.45210500  *  -1.05504531  *
    28       H          9.94003386  *  -9.03146849  *   0.01057821  *
    29       H         12.09415743  *  -8.76017692  *   1.20657722  *
    30       H         13.41562398  * -10.75342136  *   1.89477887  *
    31       H         12.57641203  * -13.03714256  *   1.37759441  *
    32       H         10.42927394  * -13.33461516  *   0.17972175  *
    33       H          6.11936333  *  -9.48254755  *   3.28845846  *
    34       H          4.53144507  *  -9.01527809  *   2.53731972  *
    35       H          5.72246046  *  -7.73592117  *   2.98640039  *
    36       H          6.34499743  *  -4.66891410  *  -1.40262797  *
    37       H          7.65015853  *  -2.90622546  *  -0.24634124  *
    38       H          9.85237137  *  -3.44757652  *   0.77722899  *
    39       H         10.74513628  *  -5.76596087  *   0.64728349  *
    40       H          9.44680201  *  -7.54724970  *  -0.50671304  *

                             CARTESIAN COORDINATES

   1    C        6.699972587    -8.474188935    -0.918337523
   2    O        7.921261644    -9.183534475    -0.543586560
   3    C        7.821384461   -10.512013499    -0.941213950
   4    C        6.531922338   -10.688761126    -1.674523477
   5    O        5.910874055    -9.415467085    -1.673249704
   6    C        5.889560602    -8.118146868     0.356917900
   7    C        7.047620932    -7.275455432    -1.786179767
   8    C        7.820291487    -6.215736708    -1.048751093
   9    O        5.989019417   -11.597712040    -2.220711439
  10    C        8.770717919   -11.426307689    -0.695229790
  11    C       10.031881783   -11.206402990     0.012847865
  12    C       10.514461724    -9.920257286     0.307998974
  13    C       11.728481183    -9.761119735     0.981624500
  14    C       12.471086758   -10.879378700     1.368156217
  15    C       11.998005656   -12.164633150     1.076588643
  16    C       10.789265564   -12.330900735     0.401863846
  17    O        6.263358941    -8.955077621     1.366227641
  18    O        5.055989971    -7.257352322     0.462298707
  19    C        5.591894428    -8.768176515     2.646233027
  20    C        7.313252384    -4.911270968    -0.966098051
  21    C        8.046915477    -3.918677410    -0.309625700
  22    C        9.283079584    -4.222707958     0.267859799
  23    C        9.785133950    -5.526460913     0.193027842
  24    C        9.057821013    -6.521546200    -0.462388764
  25    H        7.633871698    -7.619133021    -2.669676825
  26    H        6.098824564    -6.865977664    -2.209286281
  27    H        8.596814210   -12.452105000    -1.055045308
  28    H        9.940033862    -9.031468488     0.010578214
  29    H       12.094157426    -8.760176924     1.206577220
  30    H       13.415623978   -10.753421365     1.894778869
  31    H       12.576412025   -13.037142562     1.377594409
  32    H       10.429273936   -13.334615159     0.179721752
  33    H        6.119363326    -9.482547555     3.288458458
  34    H        4.531445066    -9.015278086     2.537319723
  35    H        5.722460465    -7.735921169     2.986400388
  36    H        6.344997433    -4.668914103    -1.402627968
  37    H        7.650158530    -2.906225462    -0.246341245
  38    H        9.852371369    -3.447576521     0.777228995
  39    H       10.745136277    -5.765960873     0.647283494
  40    H        9.446802006    -7.547249699    -0.506713044


           Empirical Formula: C19 H16 O5  =    40 atoms



      MOLECULAR POINT GROUP   :   C1  


                  EIGENVALUES  
 -33.25624 -32.85895 -32.61667 -31.11905 -30.33485 -30.15645 -30.02983 -28.94244
 -28.00004 -26.74002 -26.34693 -26.21054 -25.98352 -25.38756 -23.79890 -23.50054
 -22.25457 -21.75254 -21.74843 -21.23531 -20.57337 -20.32815 -18.85336 -17.98535
 -17.76751 -17.52755 -17.35239 -17.00606 -16.75157 -16.41368 -16.27850 -15.97007
 -15.72615 -15.66408 -15.34879 -14.90795 -14.80483 -14.76593 -14.57334 -14.36056
 -14.26107 -14.23870 -14.00500 -13.94992 -13.69073 -13.37730 -13.35622 -13.12623
 -12.56291 -12.51177 -12.29614 -12.20564 -11.85612 -11.64864 -11.64360 -11.41879
 -10.75227  -9.98910  -9.87751  -9.69998  -9.26483  -1.20578  -0.31349   0.04504
   0.07421   0.14528   0.16781   0.48561   0.58956   0.93504   1.01961   1.66710
   2.04579   2.23647   2.41058   2.44661   2.80024   3.14512   3.23364   3.44041
   3.65111   3.94460   3.98595   4.14725   4.22976   4.35134   4.51380   4.54594
   4.65948   4.66632   4.82004   4.89502   4.93626   4.97432   5.01560   5.06338
   5.09223   5.12992   5.19970   5.35514   5.43936   5.44472   5.55073   5.62942
   5.72716   5.86305   5.92678   5.97398   6.04987   6.06837   6.18222   6.49052


              NET ATOMIC CHARGES AND DIPOLE CONTRIBUTIONS

  ATOM NO.   TYPE          CHARGE      No. of ELECS.   s-Pop       p-Pop       
    1          C           0.426676        3.5733     1.13610     2.43722
    2          O          -0.373134        6.3731     1.85668     4.51646
    3          C           0.042442        3.9576     1.10623     2.85133
    4          C           0.589525        3.4105     1.10389     2.30659
    5          O          -0.459758        6.4598     1.86300     4.59676
    6          C           0.533995        3.4660     1.12067     2.34534
    7          C          -0.375969        4.3760     1.10038     3.27559
    8          C           0.052735        3.9473     1.08341     2.86386
    9          O          -0.372225        6.3722     1.84782     4.52441
   10          C          -0.151859        4.1519     1.10922     3.04263
   11          C           0.029947        3.9701     1.07734     2.89271
   12          C          -0.139432        4.1394     1.11464     3.02479
   13          C          -0.146825        4.1468     1.10608     3.04075
   14          C          -0.132711        4.1327     1.10757     3.02514
   15          C          -0.140950        4.1409     1.10525     3.03570
   16          C          -0.158743        4.1587     1.11024     3.04850
   17          O          -0.388964        6.3890     1.84836     4.54061
   18          O          -0.456715        6.4567     1.84975     4.60696
   19          C          -0.178910        4.1789     1.10794     3.07097
   20          C          -0.174559        4.1746     1.11005     3.06451
   21          C          -0.122361        4.1224     1.10574     3.01662
   22          C          -0.156575        4.1566     1.10671     3.04986
   23          C          -0.124636        4.1246     1.10497     3.01967
   24          C          -0.186604        4.1866     1.11249     3.07411
   25          H           0.192643        0.8074     0.80736
   26          H           0.197913        0.8021     0.80209
   27          H           0.181857        0.8181     0.81814
   28          H           0.168846        0.8312     0.83115
   29          H           0.148365        0.8516     0.85163
   30          H           0.147519        0.8525     0.85248
   31          H           0.148813        0.8512     0.85119
   32          H           0.150927        0.8491     0.84907
   33          H           0.163186        0.8368     0.83681
   34          H           0.150945        0.8491     0.84905
   35          H           0.153233        0.8468     0.84677
   36          H           0.157472        0.8425     0.84253
   37          H           0.147040        0.8530     0.85296
   38          H           0.147920        0.8521     0.85208
   39          H           0.144256        0.8557     0.85574
   40          H           0.164673        0.8353     0.83533
 DIPOLE           X         Y         Z       TOTAL
 POINT-CHG.     3.760     0.424     2.465     4.516
 HYBRID        -0.467    -0.025    -0.185     0.503
 SUM            3.292     0.399     2.281     4.025


          ATOMIC ORBITAL ELECTRON POPULATIONS

     Atom    s        px        py        pz   
    1  C   1.13610   0.73636   0.83969   0.86117
    2  O   1.85668   1.44812   1.28458   1.78375
    3  C   1.10623   0.99536   0.82292   1.03305
    4  C   1.10389   0.81631   0.75455   0.73573
    5  O   1.86300   1.56103   1.33824   1.69749
    6  C   1.12067   0.76765   0.74647   0.83122
    7  C   1.10038   1.16492   1.02392   1.08676
    8  C   1.08341   0.95351   0.93771   0.97264
    9  O   1.84782   1.62641   1.44459   1.45340
   10  C   1.10922   0.98410   1.05365   1.00488
   11  C   1.07734   0.93665   0.96895   0.98711
   12  C   1.11464   1.00189   1.03696   0.98594
   13  C   1.10608   0.99082   1.05161   0.99832
   14  C   1.10757   1.04437   0.97656   1.00421
   15  C   1.10525   1.00292   1.03359   0.99920
   16  C   1.11024   0.99428   1.05101   1.00321
   17  O   1.84836   1.64085   1.60480   1.29496
   18  O   1.84975   1.40180   1.41020   1.79495
   19  C   1.10794   1.08548   1.15676   0.82873
   20  C   1.11005   1.05845   0.98364   1.02242
   21  C   1.10574   0.98599   1.04995   0.98068
   22  C   1.10671   1.00842   1.02324   1.01820
   23  C   1.10497   1.04403   0.97722   0.99842
   24  C   1.11249   0.99729   1.06567   1.01116
   25  H   0.80736
   26  H   0.80209
   27  H   0.81814
   28  H   0.83115
   29  H   0.85163
   30  H   0.85248
   31  H   0.85119
   32  H   0.84907
   33  H   0.83681
   34  H   0.84905
   35  H   0.84677
   36  H   0.84253
   37  H   0.85296
   38  H   0.85208
   39  H   0.85574
   40  H   0.83533

 **********************
 *                    *
 * JOB ENDED NORMALLY *
 *                    *
 **********************



 TOTAL JOB TIME:            14.19 SECONDS

 == MOPAC DONE ==
