 *******************************************************************************
 ** Site#: 35412        For non-commercial use only    Version 20.225L 64BITS **
 *******************************************************************************
 ** Cite this program as: MOPAC2016, Version: 20.225L, James J. P. Stewart,   **
 ** Stewart Computational Chemistry, web: HTTP://OpenMOPAC.net. Days left: 364**
 *******************************************************************************
 **                                                                           **
 **                                MOPAC2016                                  **
 **                                                                           **
 *******************************************************************************

                              PM6 CALCULATION RESULTS

 *******************************************************************************
 *  CALCULATION DONE:                                Fri Aug 14 20:43:33 2020  *
 *  PM6        - The PM6 Hamiltonian to be used
 *  SINGLET    - SPIN STATE DEFINED AS A SINGLET
 *  OPT        - OPTIMIZE COORDINATES OF ALL ATOMS
 *
 *
 *
 *                 CHARGE ON SYSTEM = 0
 *
 *
 *
 *  PRECISE    - CRITERIA TO BE INCREASED BY 100 TIMES
 *  T=         - A TIME OF 172800.0 SECONDS REQUESTED
 *  DUMP=N     - RESTART FILE WRITTEN EVERY 7200.0 SECONDS REQUESTED
 *  AUX        - OUTPUT AUXILIARY INFORMATION
 *  PRTXYZ     - PRINT CARTESIAN COORDINATES
 *  LARGE      - EXPANDED OUTPUT TO BE PRINTED
 *******************************************************************************
 AUX LARGE CHARGE=0 SINGLET  PM6  OPT PRECISE PRTXYZ
 CN335.pdb
 50
   ATOM   CHEMICAL          X               Y               Z
  NUMBER   SYMBOL      (ANGSTROMS)     (ANGSTROMS)     (ANGSTROMS)
 
     1       C          8.82900000  *  -8.93600000  *  -1.20300000  *
     2       O          9.65600000  *  -9.62500000  *  -0.25200000  *
     3       C          9.56500000  * -10.94200000  *  -0.47300000  *
     4       C          8.76500000  * -11.15700000  *  -1.58600000  *
     5       O          8.37500000  *  -9.98300000  *  -2.06900000  *
     6       C          7.63500000  *  -8.46300000  *  -0.46600000  *
     7       C          9.60100000  *  -7.78100000  *  -1.94500000  *
     8       C         10.15300000  *  -6.71800000  *  -0.99200000  *
     9       O          8.47000000  * -12.26300000  *  -2.04700000  *
    10       C         10.21400000  * -12.02100000  *   0.33400000  *
    11       C         11.68600000  * -11.73600000  *   0.45000000  *
    12       C         12.12500000  * -10.60400000  *   1.12700000  *
    13       C         13.48800000  * -10.34800000  *   1.24300000  *
    14       C         14.41000000  * -11.22400000  *   0.68000000  *
    15       C         13.97100000  * -12.35600000  *   0.00100000  *
    16       C         12.60700000  * -12.61100000  *  -0.11400000  *
    17       O          6.55200000  *  -9.30000000  *  -0.43100000  *
    18       O          7.61600000  *  -7.37100000  *   0.12000000  *
    19       C          5.50300000  *  -8.71500000  *   0.31100000  *
    20       C          9.75900000  *  -5.39200000  *  -1.14500000  *
    21       C         10.25700000  *  -4.40800000  *  -0.29600000  *
    22       C         11.15400000  *  -4.75100000  *   0.70900000  *
    23       C         11.55600000  *  -6.07300000  *   0.86400000  *
    24       C         11.05600000  *  -7.05700000  *   0.01400000  *
    25       C          4.30300000  *  -9.65800000  *   0.29400000  *
    26       C          3.16100000  *  -9.02900000  *   1.09700000  *
    27       C          1.95100000  *  -9.97300000  *   1.07600000  *
    28       H         10.45500000  *  -8.26100000  *  -2.44900000  *
    29       H          8.93600000  *  -7.30600000  *  -2.68400000  *
    30       H          9.80300000  * -11.91900000  *   1.34900000  *
    31       H         10.01400000  * -13.01700000  *  -0.10000000  *
    32       H         11.41300000  *  -9.93800000  *   1.55500000  *
    33       H         13.82900000  *  -9.48300000  *   1.76400000  *
    34       H         15.45400000  * -11.03000000  *   0.76900000  *
    35       H         14.68100000  * -13.02700000  *  -0.43000000  *
    36       H         12.26800000  * -13.47600000  *  -0.63200000  *
    37       H          5.83100000  *  -8.55000000  *   1.34400000  *
    38       H          5.21700000  *  -7.75000000  *  -0.14200000  *
    39       H          9.07600000  *  -5.13000000  *  -1.91400000  *
    40       H          9.95500000  *  -3.38300000  *  -0.41300000  *
    41       H         11.53300000  *  -4.00300000  *   1.35700000  *
    42       H         12.25400000  *  -6.32500000  *   1.64000000  *
    43       H         11.36200000  *  -8.06700000  *   0.12900000  *
    44       H          3.98000000  *  -9.82000000  *  -0.74400000  *
    45       H          4.58500000  * -10.62000000  *   0.74400000  *
    46       H          3.48700000  *  -8.87000000  *   2.13500000  *
    47       H          2.88400000  *  -8.06500000  *   0.64700000  *
    48       H          1.12900000  *  -9.52600000  *   1.65100000  *
    49       H          2.23200000  * -10.93700000  *   1.52200000  *
    50       H          1.62900000  * -10.12900000  *   0.03600000  *
 


          CARTESIAN COORDINATES 

    NO.       ATOM           X           Y           Z

     1         C          8.8290     -8.9360     -1.2030
     2         O          9.6560     -9.6250     -0.2520
     3         C          9.5650    -10.9420     -0.4730
     4         C          8.7650    -11.1570     -1.5860
     5         O          8.3750     -9.9830     -2.0690
     6         C          7.6350     -8.4630     -0.4660
     7         C          9.6010     -7.7810     -1.9450
     8         C         10.1530     -6.7180     -0.9920
     9         O          8.4700    -12.2630     -2.0470
    10         C         10.2140    -12.0210      0.3340
    11         C         11.6860    -11.7360      0.4500
    12         C         12.1250    -10.6040      1.1270
    13         C         13.4880    -10.3480      1.2430
    14         C         14.4100    -11.2240      0.6800
    15         C         13.9710    -12.3560      0.0010
    16         C         12.6070    -12.6110     -0.1140
    17         O          6.5520     -9.3000     -0.4310
    18         O          7.6160     -7.3710      0.1200
    19         C          5.5030     -8.7150      0.3110
    20         C          9.7590     -5.3920     -1.1450
    21         C         10.2570     -4.4080     -0.2960
    22         C         11.1540     -4.7510      0.7090
    23         C         11.5560     -6.0730      0.8640
    24         C         11.0560     -7.0570      0.0140
    25         C          4.3030     -9.6580      0.2940
    26         C          3.1610     -9.0290      1.0970
    27         C          1.9510     -9.9730      1.0760
    28         H         10.4550     -8.2610     -2.4490
    29         H          8.9360     -7.3060     -2.6840
    30         H          9.8030    -11.9190      1.3490
    31         H         10.0140    -13.0170     -0.1000
    32         H         11.4130     -9.9380      1.5550
    33         H         13.8290     -9.4830      1.7640
    34         H         15.4540    -11.0300      0.7690
    35         H         14.6810    -13.0270     -0.4300
    36         H         12.2680    -13.4760     -0.6320
    37         H          5.8310     -8.5500      1.3440
    38         H          5.2170     -7.7500     -0.1420
    39         H          9.0760     -5.1300     -1.9140
    40         H          9.9550     -3.3830     -0.4130
    41         H         11.5330     -4.0030      1.3570
    42         H         12.2540     -6.3250      1.6400
    43         H         11.3620     -8.0670      0.1290
    44         H          3.9800     -9.8200     -0.7440
    45         H          4.5850    -10.6200      0.7440
    46         H          3.4870     -8.8700      2.1350
    47         H          2.8840     -8.0650      0.6470
    48         H          1.1290     -9.5260      1.6510
    49         H          2.2320    -10.9370      1.5220
    50         H          1.6290    -10.1290      0.0360

 General Reference for PM6:
 "Optimization of Parameters for Semiempirical Methods V: Modification of NDDO Approximations
 and Application to 70 Elements", J. J. P. Stewart, J. Mol. Mod., 13, 1173-1213 (2007)
 URL: https://link.springer.com/article/10.1007/s00894-007-0233-4

           Empirical Formula: C22 H23 O5  =    50 atoms



      MOLECULAR POINT GROUP   :   C1  

          SINGLET SPECIFIED WITH ODD NUMBER OF ELECTRONS, CORRECT FAULT

 ******************************************************************************
 *                                                                            *
 *     Error and normal termination messages reported in this calculation     *
 *                                                                            *
 * SINGLET SPECIFIED WITH ODD NUMBER OF ELECTRONS, CORRECT FAULT              *
 * JOB ENDED NORMALLY                                                         *
 *                                                                            *
 ******************************************************************************



 TOTAL JOB TIME:             0.02 SECONDS

 == MOPAC DONE ==
