 *******************************************************************************
 ** Site#: 35412        For non-commercial use only    Version 20.225L 64BITS **
 *******************************************************************************
 ** Cite this program as: MOPAC2016, Version: 20.225L, James J. P. Stewart,   **
 ** Stewart Computational Chemistry, web: HTTP://OpenMOPAC.net. Days left: 364**
 *******************************************************************************
 **                                                                           **
 **                                MOPAC2016                                  **
 **                                                                           **
 *******************************************************************************

                              PM6 CALCULATION RESULTS

 *******************************************************************************
 *  CALCULATION DONE:                                Fri Aug 14 20:43:33 2020  *
 *  PM6        - The PM6 Hamiltonian to be used
 *  SINGLET    - SPIN STATE DEFINED AS A SINGLET
 *  OPT        - OPTIMIZE COORDINATES OF ALL ATOMS
 *
 *
 *
 *                 CHARGE ON SYSTEM = 0
 *
 *
 *
 *  PRECISE    - CRITERIA TO BE INCREASED BY 100 TIMES
 *  T=         - A TIME OF 172800.0 SECONDS REQUESTED
 *  DUMP=N     - RESTART FILE WRITTEN EVERY 7200.0 SECONDS REQUESTED
 *  AUX        - OUTPUT AUXILIARY INFORMATION
 *  PRTXYZ     - PRINT CARTESIAN COORDINATES
 *  LARGE      - EXPANDED OUTPUT TO BE PRINTED
 *******************************************************************************
 AUX LARGE CHARGE=0 SINGLET  PM6  OPT PRECISE PRTXYZ
 CN336.pdb
 30
   ATOM   CHEMICAL          X               Y               Z
  NUMBER   SYMBOL      (ANGSTROMS)     (ANGSTROMS)     (ANGSTROMS)
 
     1       C          5.06600000  *  -7.43000000  *   0.16400000  *
     2       C          5.05100000  *  -8.82200000  *   0.12300000  *
     3       C          6.24100000  *  -9.52700000  *   0.02400000  *
     4       C          7.43200000  *  -8.81100000  *  -0.03200000  *
     5       C          7.43900000  *  -7.42000000  *   0.01200000  *
     6       C          6.24800000  *  -6.70800000  *   0.11000000  *
     7       C          8.69900000  *  -9.49300000  *  -0.13500000  *
     8       O          9.83700000  *  -8.78800000  *  -0.20600000  *
     9       C          9.84000000  *  -7.41500000  *  -0.15000000  *
    10       C          8.70400000  *  -6.72500000  *  -0.04700000  *
    11       O          8.76500000  * -10.71900000  *  -0.16100000  *
    12       C         11.13600000  *  -6.66800000  *  -0.21200000  *
    13       C         12.35300000  *  -7.62600000  *  -0.14900000  *
    14       O          3.92600000  *  -6.76600000  *   0.25800000  *
    15       O          6.24100000  * -10.94900000  *  -0.02000000  *
    16       C         13.65200000  *  -6.80300000  *  -0.25300000  *
    17       O         12.35300000  *  -8.35800000  *   1.09000000  *
    18       O          6.22100000  *  -5.24600000  *   0.15700000  *
    19       H          4.13300000  *  -9.34100000  *   0.16600000  *
    20       H          8.72300000  *  -5.66900000  *  -0.00900000  *
    21       H         11.14900000  *  -6.10100000  *  -1.15200000  *
    22       H         11.16000000  *  -5.93300000  *   0.60200000  *
    23       H         12.29700000  *  -8.33300000  *  -0.98900000  *
    24       H          4.10400000  *  -5.80900000  *   0.27600000  *
    25       H          5.33900000  * -11.30900000  *   0.02700000  *
    26       H         14.51800000  *  -7.48000000  *  -0.21800000  *
    27       H         13.70500000  *  -6.09400000  *   0.58600000  *
    28       H         13.65800000  *  -6.24800000  *  -1.20300000  *
    29       H         12.41000000  *  -7.73900000  *   1.85100000  *
    30       H          5.27500000  *  -4.88800000  *   0.22900000  *
 


          CARTESIAN COORDINATES 

    NO.       ATOM           X           Y           Z

     1         C          5.0660     -7.4300      0.1640
     2         C          5.0510     -8.8220      0.1230
     3         C          6.2410     -9.5270      0.0240
     4         C          7.4320     -8.8110     -0.0320
     5         C          7.4390     -7.4200      0.0120
     6         C          6.2480     -6.7080      0.1100
     7         C          8.6990     -9.4930     -0.1350
     8         O          9.8370     -8.7880     -0.2060
     9         C          9.8400     -7.4150     -0.1500
    10         C          8.7040     -6.7250     -0.0470
    11         O          8.7650    -10.7190     -0.1610
    12         C         11.1360     -6.6680     -0.2120
    13         C         12.3530     -7.6260     -0.1490
    14         O          3.9260     -6.7660      0.2580
    15         O          6.2410    -10.9490     -0.0200
    16         C         13.6520     -6.8030     -0.2530
    17         O         12.3530     -8.3580      1.0900
    18         O          6.2210     -5.2460      0.1570
    19         H          4.1330     -9.3410      0.1660
    20         H          8.7230     -5.6690     -0.0090
    21         H         11.1490     -6.1010     -1.1520
    22         H         11.1600     -5.9330      0.6020
    23         H         12.2970     -8.3330     -0.9890
    24         H          4.1040     -5.8090      0.2760
    25         H          5.3390    -11.3090      0.0270
    26         H         14.5180     -7.4800     -0.2180
    27         H         13.7050     -6.0940      0.5860
    28         H         13.6580     -6.2480     -1.2030
    29         H         12.4100     -7.7390      1.8510
    30         H          5.2750     -4.8880      0.2290

 General Reference for PM6:
 "Optimization of Parameters for Semiempirical Methods V: Modification of NDDO Approximations
 and Application to 70 Elements", J. J. P. Stewart, J. Mol. Mod., 13, 1173-1213 (2007)
 URL: https://link.springer.com/article/10.1007/s00894-007-0233-4

           Empirical Formula: C12 H12 O6  =    30 atoms



      MOLECULAR POINT GROUP   :   C1  


 SINGLET STATE CALCULATION


      RHF CALCULATION, NO. OF DOUBLY OCCUPIED LEVELS = 48


          Geometry optimization using EF

          DIAGONAL MATRIX USED AS START HESSIAN

 CYCLE:     1 TIME:   0.039 TIME LEFT:  2.00D  GRAD.:   206.277 HEAT: -202.8124
 CYCLE:     2 TIME:   0.047 TIME LEFT:  2.00D  GRAD.:   118.385 HEAT: -213.4328
 CYCLE:     3 TIME:   0.039 TIME LEFT:  2.00D  GRAD.:    97.383 HEAT: -216.0818
 CYCLE:     4 TIME:   0.023 TIME LEFT:  2.00D  GRAD.:    60.796 HEAT: -218.8502
 CYCLE:     5 TIME:   0.016 TIME LEFT:  2.00D  GRAD.:    79.540 HEAT: -220.5668
 CYCLE:     6 TIME:   0.023 TIME LEFT:  2.00D  GRAD.:   116.698 HEAT: -220.6986
 CYCLE:     7 TIME:   0.023 TIME LEFT:  2.00D  GRAD.:    84.918 HEAT: -222.0835
 CYCLE:     8 TIME:   0.031 TIME LEFT:  2.00D  GRAD.:    60.467 HEAT: -223.7257
 CYCLE:     9 TIME:   0.039 TIME LEFT:  2.00D  GRAD.:    23.477 HEAT: -224.4534
 CYCLE:    10 TIME:   0.016 TIME LEFT:  2.00D  GRAD.:    35.135 HEAT: -224.6109
 CYCLE:    11 TIME:   0.023 TIME LEFT:  2.00D  GRAD.:    27.894 HEAT: -224.9497
 CYCLE:    12 TIME:   0.016 TIME LEFT:  2.00D  GRAD.:    40.586 HEAT: -225.0645
 CYCLE:    13 TIME:   0.023 TIME LEFT:  2.00D  GRAD.:    36.939 HEAT: -225.2244
 CYCLE:    14 TIME:   0.016 TIME LEFT:  2.00D  GRAD.:    42.900 HEAT: -225.3292
 CYCLE:    15 TIME:   0.016 TIME LEFT:  2.00D  GRAD.:    28.609 HEAT: -225.6030
 CYCLE:    16 TIME:   0.023 TIME LEFT:  2.00D  GRAD.:    25.158 HEAT: -225.7155
 CYCLE:    17 TIME:   0.023 TIME LEFT:  2.00D  GRAD.:    20.212 HEAT: -225.8416
 CYCLE:    18 TIME:   0.031 TIME LEFT:  2.00D  GRAD.:    10.010 HEAT: -225.9632
 CYCLE:    19 TIME:   0.039 TIME LEFT:  2.00D  GRAD.:     8.380 HEAT: -226.0022
 CYCLE:    20 TIME:   0.016 TIME LEFT:  2.00D  GRAD.:     7.967 HEAT: -226.0544
 CYCLE:    21 TIME:   0.023 TIME LEFT:  2.00D  GRAD.:    10.883 HEAT: -226.1286
 CYCLE:    22 TIME:   0.031 TIME LEFT:  2.00D  GRAD.:    11.264 HEAT: -226.2161
 CYCLE:    23 TIME:   0.062 TIME LEFT:  2.00D  GRAD.:    13.312 HEAT: -226.2308
 CYCLE:    24 TIME:   0.031 TIME LEFT:  2.00D  GRAD.:     5.421 HEAT: -226.2939
 CYCLE:    25 TIME:   0.016 TIME LEFT:  2.00D  GRAD.:     8.542 HEAT: -226.3083
 CYCLE:    26 TIME:   0.031 TIME LEFT:  2.00D  GRAD.:     6.298 HEAT: -226.3544
 CYCLE:    27 TIME:   0.023 TIME LEFT:  2.00D  GRAD.:     9.966 HEAT: -226.4213
 CYCLE:    28 TIME:   0.031 TIME LEFT:  2.00D  GRAD.:    11.263 HEAT: -226.4850
 CYCLE:    29 TIME:   0.023 TIME LEFT:  2.00D  GRAD.:     7.813 HEAT: -226.5652
 CYCLE:    30 TIME:   0.016 TIME LEFT:  2.00D  GRAD.:    10.778 HEAT: -226.6792
 CYCLE:    31 TIME:   0.023 TIME LEFT:  2.00D  GRAD.:    18.322 HEAT: -226.8303
 CYCLE:    32 TIME:   0.023 TIME LEFT:  2.00D  GRAD.:    15.890 HEAT: -227.0152
 CYCLE:    33 TIME:   0.023 TIME LEFT:  2.00D  GRAD.:    17.567 HEAT: -227.2349
 CYCLE:    34 TIME:   0.023 TIME LEFT:  2.00D  GRAD.:    21.733 HEAT: -227.3989
 CYCLE:    35 TIME:   0.031 TIME LEFT:  2.00D  GRAD.:    30.558 HEAT: -227.6887
 CYCLE:    36 TIME:   0.016 TIME LEFT:  2.00D  GRAD.:    24.322 HEAT: -228.1578
 CYCLE:    37 TIME:   0.023 TIME LEFT:  2.00D  GRAD.:    36.658 HEAT: -228.6189
 CYCLE:    38 TIME:   0.023 TIME LEFT:  2.00D  GRAD.:    38.878 HEAT: -229.0487
 CYCLE:    39 TIME:   0.023 TIME LEFT:  2.00D  GRAD.:    34.233 HEAT: -229.7278
 CYCLE:    40 TIME:   0.016 TIME LEFT:  2.00D  GRAD.:    18.712 HEAT: -230.2481
 CYCLE:    41 TIME:   0.016 TIME LEFT:  2.00D  GRAD.:    16.477 HEAT: -230.6420
 CYCLE:    42 TIME:   0.023 TIME LEFT:  2.00D  GRAD.:    16.902 HEAT: -231.2401
 CYCLE:    43 TIME:   0.023 TIME LEFT:  2.00D  GRAD.:    15.454 HEAT: -231.4981
 CYCLE:    44 TIME:   0.031 TIME LEFT:  2.00D  GRAD.:    14.907 HEAT: -231.7162
 CYCLE:    45 TIME:   0.023 TIME LEFT:  2.00D  GRAD.:    24.974 HEAT: -231.8030
 CYCLE:    46 TIME:   0.016 TIME LEFT:  2.00D  GRAD.:    13.782 HEAT: -232.1147
 CYCLE:    47 TIME:   0.023 TIME LEFT:  2.00D  GRAD.:    13.885 HEAT: -232.2730
 CYCLE:    48 TIME:   0.016 TIME LEFT:  2.00D  GRAD.:    13.062 HEAT: -232.5009
 CYCLE:    49 TIME:   0.016 TIME LEFT:  2.00D  GRAD.:    15.476 HEAT: -232.8393
 CYCLE:    50 TIME:   0.023 TIME LEFT:  2.00D  GRAD.:    11.395 HEAT: -233.0194
 CYCLE:    51 TIME:   0.016 TIME LEFT:  2.00D  GRAD.:    12.122 HEAT: -233.1846
 CYCLE:    52 TIME:   0.023 TIME LEFT:  2.00D  GRAD.:    11.847 HEAT: -233.3425
 CYCLE:    53 TIME:   0.016 TIME LEFT:  2.00D  GRAD.:    12.346 HEAT: -233.4474
 CYCLE:    54 TIME:   0.023 TIME LEFT:  2.00D  GRAD.:     9.817 HEAT: -233.5539
 CYCLE:    55 TIME:   0.023 TIME LEFT:  2.00D  GRAD.:     7.125 HEAT: -233.6487
 CYCLE:    56 TIME:   0.016 TIME LEFT:  2.00D  GRAD.:     7.160 HEAT: -233.7334
 CYCLE:    57 TIME:   0.016 TIME LEFT:  2.00D  GRAD.:     7.863 HEAT: -233.8361
 CYCLE:    58 TIME:   0.023 TIME LEFT:  2.00D  GRAD.:     6.770 HEAT: -233.9361
 CYCLE:    59 TIME:   0.016 TIME LEFT:  2.00D  GRAD.:     5.518 HEAT: -234.0072
 CYCLE:    60 TIME:   0.023 TIME LEFT:  2.00D  GRAD.:     6.809 HEAT: -234.0779
 CYCLE:    61 TIME:   0.016 TIME LEFT:  2.00D  GRAD.:     6.982 HEAT: -234.1479
 CYCLE:    62 TIME:   0.016 TIME LEFT:  2.00D  GRAD.:     3.977 HEAT: -234.2091
 CYCLE:    63 TIME:   0.023 TIME LEFT:  2.00D  GRAD.:     3.394 HEAT: -234.2408
 CYCLE:    64 TIME:   0.023 TIME LEFT:  2.00D  GRAD.:     3.303 HEAT: -234.2632
 CYCLE:    65 TIME:   0.023 TIME LEFT:  2.00D  GRAD.:     3.422 HEAT: -234.2876
 CYCLE:    66 TIME:   0.016 TIME LEFT:  2.00D  GRAD.:     3.581 HEAT: -234.3154
 CYCLE:    67 TIME:   0.016 TIME LEFT:  2.00D  GRAD.:     3.550 HEAT: -234.3446
 CYCLE:    68 TIME:   0.023 TIME LEFT:  2.00D  GRAD.:     3.432 HEAT: -234.3751
 CYCLE:    69 TIME:   0.031 TIME LEFT:  2.00D  GRAD.:     3.111 HEAT: -234.4033
 CYCLE:    70 TIME:   0.039 TIME LEFT:  2.00D  GRAD.:     4.061 HEAT: -234.4310
 CYCLE:    71 TIME:   0.031 TIME LEFT:  2.00D  GRAD.:     4.073 HEAT: -234.4593
 CYCLE:    72 TIME:   0.023 TIME LEFT:  2.00D  GRAD.:     4.544 HEAT: -234.4907
 CYCLE:    73 TIME:   0.016 TIME LEFT:  2.00D  GRAD.:     3.412 HEAT: -234.5262
 CYCLE:    74 TIME:   0.023 TIME LEFT:  2.00D  GRAD.:     2.854 HEAT: -234.5469
 CYCLE:    75 TIME:   0.016 TIME LEFT:  2.00D  GRAD.:     2.113 HEAT: -234.5613
 CYCLE:    76 TIME:   0.023 TIME LEFT:  2.00D  GRAD.:     2.328 HEAT: -234.5726
 CYCLE:    77 TIME:   0.016 TIME LEFT:  2.00D  GRAD.:     2.300 HEAT: -234.5848
 CYCLE:    78 TIME:   0.016 TIME LEFT:  2.00D  GRAD.:     3.193 HEAT: -234.6039
 CYCLE:    79 TIME:   0.023 TIME LEFT:  2.00D  GRAD.:     4.042 HEAT: -234.6277
 CYCLE:    80 TIME:   0.016 TIME LEFT:  2.00D  GRAD.:     5.098 HEAT: -234.6433
 CYCLE:    81 TIME:   0.023 TIME LEFT:  2.00D  GRAD.:     3.133 HEAT: -234.6751
 CYCLE:    82 TIME:   0.016 TIME LEFT:  2.00D  GRAD.:     2.602 HEAT: -234.6952
 CYCLE:    83 TIME:   0.016 TIME LEFT:  2.00D  GRAD.:     2.672 HEAT: -234.7182
 CYCLE:    84 TIME:   0.023 TIME LEFT:  2.00D  GRAD.:     3.113 HEAT: -234.7342
 CYCLE:    85 TIME:   0.023 TIME LEFT:  2.00D  GRAD.:     3.264 HEAT: -234.7519
 CYCLE:    86 TIME:   0.016 TIME LEFT:  2.00D  GRAD.:     2.701 HEAT: -234.7696
 CYCLE:    87 TIME:   0.016 TIME LEFT:  2.00D  GRAD.:     2.231 HEAT: -234.7810
 CYCLE:    88 TIME:   0.023 TIME LEFT:  2.00D  GRAD.:     2.403 HEAT: -234.7880
 CYCLE:    89 TIME:   0.016 TIME LEFT:  2.00D  GRAD.:     2.649 HEAT: -234.7934
 CYCLE:    90 TIME:   0.023 TIME LEFT:  2.00D  GRAD.:     2.018 HEAT: -234.8015
 CYCLE:    91 TIME:   0.023 TIME LEFT:  2.00D  GRAD.:     1.809 HEAT: -234.8116
 CYCLE:    92 TIME:   0.016 TIME LEFT:  2.00D  GRAD.:     1.710 HEAT: -234.8171
 CYCLE:    93 TIME:   0.023 TIME LEFT:  2.00D  GRAD.:     1.579 HEAT: -234.8240
 CYCLE:    94 TIME:   0.016 TIME LEFT:  2.00D  GRAD.:     1.630 HEAT: -234.8303
 CYCLE:    95 TIME:   0.023 TIME LEFT:  2.00D  GRAD.:     1.838 HEAT: -234.8383
 CYCLE:    96 TIME:   0.016 TIME LEFT:  2.00D  GRAD.:     1.819 HEAT: -234.8483
 CYCLE:    97 TIME:   0.016 TIME LEFT:  2.00D  GRAD.:     2.349 HEAT: -234.8569
 CYCLE:    98 TIME:   0.023 TIME LEFT:  2.00D  GRAD.:     1.975 HEAT: -234.8633
 CYCLE:    99 TIME:   0.016 TIME LEFT:  2.00D  GRAD.:     1.484 HEAT: -234.8696
 CYCLE:   100 TIME:   0.023 TIME LEFT:  2.00D  GRAD.:     1.479 HEAT: -234.8762
 CYCLE:   101 TIME:   0.016 TIME LEFT:  2.00D  GRAD.:     1.862 HEAT: -234.8833
 CYCLE:   102 TIME:   0.016 TIME LEFT:  2.00D  GRAD.:     1.766 HEAT: -234.8932
 CYCLE:   103 TIME:   0.016 TIME LEFT:  2.00D  GRAD.:     1.911 HEAT: -234.9024
 CYCLE:   104 TIME:   0.023 TIME LEFT:  2.00D  GRAD.:     1.756 HEAT: -234.9090
 CYCLE:   105 TIME:   0.023 TIME LEFT:  2.00D  GRAD.:     1.667 HEAT: -234.9151
 CYCLE:   106 TIME:   0.023 TIME LEFT:  2.00D  GRAD.:     1.516 HEAT: -234.9212
 CYCLE:   107 TIME:   0.016 TIME LEFT:  2.00D  GRAD.:     1.347 HEAT: -234.9259
 CYCLE:   108 TIME:   0.016 TIME LEFT:  2.00D  GRAD.:     1.070 HEAT: -234.9289
 CYCLE:   109 TIME:   0.023 TIME LEFT:  2.00D  GRAD.:     1.324 HEAT: -234.9314
 CYCLE:   110 TIME:   0.016 TIME LEFT:  2.00D  GRAD.:     1.359 HEAT: -234.9343
 CYCLE:   111 TIME:   0.016 TIME LEFT:  2.00D  GRAD.:     1.402 HEAT: -234.9384
 CYCLE:   112 TIME:   0.023 TIME LEFT:  2.00D  GRAD.:     1.286 HEAT: -234.9411
 CYCLE:   113 TIME:   0.016 TIME LEFT:  2.00D  GRAD.:     1.039 HEAT: -234.9437
 CYCLE:   114 TIME:   0.023 TIME LEFT:  2.00D  GRAD.:     1.108 HEAT: -234.9462
 CYCLE:   115 TIME:   0.023 TIME LEFT:  2.00D  GRAD.:     1.177 HEAT: -234.9492
 CYCLE:   116 TIME:   0.023 TIME LEFT:  2.00D  GRAD.:     1.423 HEAT: -234.9526
 CYCLE:   117 TIME:   0.023 TIME LEFT:  2.00D  GRAD.:     1.782 HEAT: -234.9570
 CYCLE:   118 TIME:   0.016 TIME LEFT:  2.00D  GRAD.:     1.835 HEAT: -234.9624
 CYCLE:   119 TIME:   0.023 TIME LEFT:  2.00D  GRAD.:     2.173 HEAT: -234.9716
 CYCLE:   120 TIME:   0.016 TIME LEFT:  2.00D  GRAD.:     2.057 HEAT: -234.9792
 CYCLE:   121 TIME:   0.023 TIME LEFT:  2.00D  GRAD.:     2.479 HEAT: -234.9898
 CYCLE:   122 TIME:   0.039 TIME LEFT:  2.00D  GRAD.:     2.537 HEAT: -235.0001
 CYCLE:   123 TIME:   0.039 TIME LEFT:  2.00D  GRAD.:     3.260 HEAT: -235.0046
 CYCLE:   124 TIME:   0.023 TIME LEFT:  2.00D  GRAD.:     3.038 HEAT: -235.0171
 CYCLE:   125 TIME:   0.016 TIME LEFT:  2.00D  GRAD.:     1.823 HEAT: -235.0248
 CYCLE:   126 TIME:   0.023 TIME LEFT:  2.00D  GRAD.:     1.314 HEAT: -235.0324
 CYCLE:   127 TIME:   0.023 TIME LEFT:  2.00D  GRAD.:     1.494 HEAT: -235.0415
 CYCLE:   128 TIME:   0.023 TIME LEFT:  2.00D  GRAD.:     1.315 HEAT: -235.0456
 CYCLE:   129 TIME:   0.016 TIME LEFT:  2.00D  GRAD.:     1.094 HEAT: -235.0477
 CYCLE:   130 TIME:   0.016 TIME LEFT:  2.00D  GRAD.:     1.133 HEAT: -235.0495
 CYCLE:   131 TIME:   0.023 TIME LEFT:  2.00D  GRAD.:     0.902 HEAT: -235.0511
 CYCLE:   132 TIME:   0.016 TIME LEFT:  2.00D  GRAD.:     0.787 HEAT: -235.0531
 CYCLE:   133 TIME:   0.023 TIME LEFT:  2.00D  GRAD.:     0.721 HEAT: -235.0543
 CYCLE:   134 TIME:   0.016 TIME LEFT:  2.00D  GRAD.:     0.840 HEAT: -235.0559
 CYCLE:   135 TIME:   0.016 TIME LEFT:  2.00D  GRAD.:     1.031 HEAT: -235.0576
 CYCLE:   136 TIME:   0.023 TIME LEFT:  2.00D  GRAD.:     1.191 HEAT: -235.0602
 CYCLE:   137 TIME:   0.023 TIME LEFT:  2.00D  GRAD.:     1.532 HEAT: -235.0649
 CYCLE:   138 TIME:   0.023 TIME LEFT:  2.00D  GRAD.:     1.504 HEAT: -235.0690
 CYCLE:   139 TIME:   0.016 TIME LEFT:  2.00D  GRAD.:     1.716 HEAT: -235.0767
 CYCLE:   140 TIME:   0.023 TIME LEFT:  2.00D  GRAD.:     1.667 HEAT: -235.0805
 CYCLE:   141 TIME:   0.016 TIME LEFT:  2.00D  GRAD.:     1.550 HEAT: -235.0849
 CYCLE:   142 TIME:   0.023 TIME LEFT:  2.00D  GRAD.:     1.075 HEAT: -235.0882
 CYCLE:   143 TIME:   0.016 TIME LEFT:  2.00D  GRAD.:     1.215 HEAT: -235.0907
 CYCLE:   144 TIME:   0.023 TIME LEFT:  2.00D  GRAD.:     1.153 HEAT: -235.0927
 CYCLE:   145 TIME:   0.016 TIME LEFT:  2.00D  GRAD.:     1.220 HEAT: -235.0953
 CYCLE:   146 TIME:   0.023 TIME LEFT:  2.00D  GRAD.:     1.461 HEAT: -235.1005
 CYCLE:   147 TIME:   0.023 TIME LEFT:  2.00D  GRAD.:     1.943 HEAT: -235.1067
 CYCLE:   148 TIME:   0.023 TIME LEFT:  2.00D  GRAD.:     2.092 HEAT: -235.1150
 CYCLE:   149 TIME:   0.016 TIME LEFT:  2.00D  GRAD.:     3.060 HEAT: -235.1181
 CYCLE:   150 TIME:   0.023 TIME LEFT:  2.00D  GRAD.:     1.906 HEAT: -235.1252
 CYCLE:   151 TIME:   0.016 TIME LEFT:  2.00D  GRAD.:     1.534 HEAT: -235.1297
 CYCLE:   152 TIME:   0.023 TIME LEFT:  2.00D  GRAD.:     1.482 HEAT: -235.1351
 CYCLE:   153 TIME:   0.016 TIME LEFT:  2.00D  GRAD.:     1.966 HEAT: -235.1411
 CYCLE:   154 TIME:   0.023 TIME LEFT:  2.00D  GRAD.:     1.956 HEAT: -235.1498
 CYCLE:   155 TIME:   0.016 TIME LEFT:  2.00D  GRAD.:     2.538 HEAT: -235.1587
 CYCLE:   156 TIME:   0.016 TIME LEFT:  2.00D  GRAD.:     2.575 HEAT: -235.1649
 CYCLE:   157 TIME:   0.023 TIME LEFT:  2.00D  GRAD.:     2.465 HEAT: -235.1708
 CYCLE:   158 TIME:   0.016 TIME LEFT:  2.00D  GRAD.:     1.330 HEAT: -235.1749
 CYCLE:   159 TIME:   0.016 TIME LEFT:  2.00D  GRAD.:     0.877 HEAT: -235.1772
 CYCLE:   160 TIME:   0.023 TIME LEFT:  2.00D  GRAD.:     1.078 HEAT: -235.1796
 CYCLE:   161 TIME:   0.023 TIME LEFT:  2.00D  GRAD.:     0.958 HEAT: -235.1810
 CYCLE:   162 TIME:   0.016 TIME LEFT:  2.00D  GRAD.:     0.984 HEAT: -235.1824
 CYCLE:   163 TIME:   0.023 TIME LEFT:  2.00D  GRAD.:     0.926 HEAT: -235.1842
 CYCLE:   164 TIME:   0.016 TIME LEFT:  2.00D  GRAD.:     0.967 HEAT: -235.1857
 CYCLE:   165 TIME:   0.023 TIME LEFT:  2.00D  GRAD.:     1.164 HEAT: -235.1878
 CYCLE:   166 TIME:   0.023 TIME LEFT:  2.00D  GRAD.:     1.473 HEAT: -235.1901
 CYCLE:   167 TIME:   0.023 TIME LEFT:  2.00D  GRAD.:     1.407 HEAT: -235.1933
 CYCLE:   168 TIME:   0.016 TIME LEFT:  2.00D  GRAD.:     1.753 HEAT: -235.1990
 CYCLE:   169 TIME:   0.023 TIME LEFT:  2.00D  GRAD.:     1.919 HEAT: -235.2033
 CYCLE:   170 TIME:   0.016 TIME LEFT:  2.00D  GRAD.:     1.967 HEAT: -235.2107
 CYCLE:   171 TIME:   0.023 TIME LEFT:  2.00D  GRAD.:     2.262 HEAT: -235.2202
 CYCLE:   172 TIME:   0.023 TIME LEFT:  2.00D  GRAD.:     2.028 HEAT: -235.2274
 CYCLE:   173 TIME:   0.031 TIME LEFT:  2.00D  GRAD.:     2.163 HEAT: -235.2327
 CYCLE:   174 TIME:   0.055 TIME LEFT:  2.00D  GRAD.:     1.616 HEAT: -235.2363
 CYCLE:   175 TIME:   0.023 TIME LEFT:  2.00D  GRAD.:     1.150 HEAT: -235.2385
 CYCLE:   176 TIME:   0.023 TIME LEFT:  2.00D  GRAD.:     1.209 HEAT: -235.2402
 CYCLE:   177 TIME:   0.023 TIME LEFT:  2.00D  GRAD.:     0.908 HEAT: -235.2413
 CYCLE:   178 TIME:   0.016 TIME LEFT:  2.00D  GRAD.:     0.810 HEAT: -235.2421
 CYCLE:   179 TIME:   0.023 TIME LEFT:  2.00D  GRAD.:     0.736 HEAT: -235.2429
 CYCLE:   180 TIME:   0.016 TIME LEFT:  2.00D  GRAD.:     0.816 HEAT: -235.2437
 CYCLE:   181 TIME:   0.016 TIME LEFT:  2.00D  GRAD.:     0.838 HEAT: -235.2446
 CYCLE:   182 TIME:   0.023 TIME LEFT:  2.00D  GRAD.:     0.813 HEAT: -235.2455
 CYCLE:   183 TIME:   0.016 TIME LEFT:  2.00D  GRAD.:     1.052 HEAT: -235.2468
 CYCLE:   184 TIME:   0.023 TIME LEFT:  2.00D  GRAD.:     0.979 HEAT: -235.2479
 CYCLE:   185 TIME:   0.016 TIME LEFT:  2.00D  GRAD.:     1.313 HEAT: -235.2504
 CYCLE:   186 TIME:   0.016 TIME LEFT:  2.00D  GRAD.:     0.999 HEAT: -235.2516
 CYCLE:   187 TIME:   0.016 TIME LEFT:  2.00D  GRAD.:     0.742 HEAT: -235.2533
 CYCLE:   188 TIME:   0.023 TIME LEFT:  2.00D  GRAD.:     1.025 HEAT: -235.2551
 CYCLE:   189 TIME:   0.016 TIME LEFT:  2.00D  GRAD.:     1.276 HEAT: -235.2568
 CYCLE:   190 TIME:   0.023 TIME LEFT:  2.00D  GRAD.:     2.093 HEAT: -235.2611
 CYCLE:   191 TIME:   0.016 TIME LEFT:  2.00D  GRAD.:     1.765 HEAT: -235.2640
 CYCLE:   192 TIME:   0.023 TIME LEFT:  2.00D  GRAD.:     2.129 HEAT: -235.2704
 CYCLE:   193 TIME:   0.016 TIME LEFT:  2.00D  GRAD.:     4.020 HEAT: -235.2811
 CYCLE:   194 TIME:   0.023 TIME LEFT:  2.00D  GRAD.:     3.542 HEAT: -235.2923
 CYCLE:   195 TIME:   0.016 TIME LEFT:  2.00D  GRAD.:     5.660 HEAT: -235.3096
 CYCLE:   196 TIME:   0.016 TIME LEFT:  2.00D  GRAD.:     8.990 HEAT: -235.3234
 CYCLE:   197 TIME:   0.047 TIME LEFT:  2.00D  GRAD.:     6.162 HEAT: -235.3484
 CYCLE:   198 TIME:   0.023 TIME LEFT:  2.00D  GRAD.:     4.075 HEAT: -235.3817
 CYCLE:   199 TIME:   0.023 TIME LEFT:  2.00D  GRAD.:     4.277 HEAT: -235.4018
 CYCLE:   200 TIME:   0.016 TIME LEFT:  2.00D  GRAD.:     6.283 HEAT: -235.4301
 CYCLE:   201 TIME:   0.023 TIME LEFT:  2.00D  GRAD.:     6.125 HEAT: -235.4715
 CYCLE:   202 TIME:   0.023 TIME LEFT:  2.00D  GRAD.:     5.811 HEAT: -235.5303
 CYCLE:   203 TIME:   0.016 TIME LEFT:  2.00D  GRAD.:     7.420 HEAT: -235.6172
 CYCLE:   204 TIME:   0.031 TIME LEFT:  2.00D  GRAD.:     7.118 HEAT: -235.6837
 CYCLE:   205 TIME:   0.062 TIME LEFT:  2.00D  GRAD.:     6.866 HEAT: -235.7237
 CYCLE:   206 TIME:   0.016 TIME LEFT:  2.00D  GRAD.:     3.742 HEAT: -235.7614
 CYCLE:   207 TIME:   0.023 TIME LEFT:  2.00D  GRAD.:     2.535 HEAT: -235.8084
 CYCLE:   208 TIME:   0.023 TIME LEFT:  2.00D  GRAD.:     3.175 HEAT: -235.8683
 CYCLE:   209 TIME:   0.016 TIME LEFT:  2.00D  GRAD.:     5.761 HEAT: -235.9670
 CYCLE:   210 TIME:   0.016 TIME LEFT:  2.00D  GRAD.:    11.241 HEAT: -236.0682
 CYCLE:   211 TIME:   0.023 TIME LEFT:  2.00D  GRAD.:    12.173 HEAT: -236.0904
 CYCLE:   212 TIME:   0.031 TIME LEFT:  2.00D  GRAD.:    11.562 HEAT: -236.1862
 CYCLE:   213 TIME:   0.031 TIME LEFT:  2.00D  GRAD.:    11.028 HEAT: -236.2288
 CYCLE:   214 TIME:   0.023 TIME LEFT:  2.00D  GRAD.:     7.181 HEAT: -236.2820
 CYCLE:   215 TIME:   0.023 TIME LEFT:  2.00D  GRAD.:     7.041 HEAT: -236.3160
 CYCLE:   216 TIME:   0.016 TIME LEFT:  2.00D  GRAD.:    10.595 HEAT: -236.3195
 CYCLE:   217 TIME:   0.023 TIME LEFT:  2.00D  GRAD.:    12.809 HEAT: -236.3497
 CYCLE:   218 TIME:   0.031 TIME LEFT:  2.00D  GRAD.:     6.577 HEAT: -236.4033
 CYCLE:   219 TIME:   0.023 TIME LEFT:  2.00D  GRAD.:     6.021 HEAT: -236.4393
 CYCLE:   220 TIME:   0.039 TIME LEFT:  2.00D  GRAD.:     6.603 HEAT: -236.4745
 CYCLE:   221 TIME:   0.023 TIME LEFT:  2.00D  GRAD.:     8.419 HEAT: -236.5226
 CYCLE:   222 TIME:   0.047 TIME LEFT:  2.00D  GRAD.:     8.449 HEAT: -236.5342
 CYCLE:   223 TIME:   0.023 TIME LEFT:  2.00D  GRAD.:     4.210 HEAT: -236.5766
 CYCLE:   224 TIME:   0.016 TIME LEFT:  2.00D  GRAD.:     3.704 HEAT: -236.6005
 CYCLE:   225 TIME:   0.023 TIME LEFT:  2.00D  GRAD.:     4.264 HEAT: -236.6397
 CYCLE:   226 TIME:   0.023 TIME LEFT:  2.00D  GRAD.:     4.270 HEAT: -236.6958
 CYCLE:   227 TIME:   0.016 TIME LEFT:  2.00D  GRAD.:    10.076 HEAT: -236.7232
 CYCLE:   228 TIME:   0.023 TIME LEFT:  2.00D  GRAD.:     8.506 HEAT: -236.7565
 CYCLE:   229 TIME:   0.023 TIME LEFT:  2.00D  GRAD.:     6.562 HEAT: -236.7903
 CYCLE:   230 TIME:   0.016 TIME LEFT:  2.00D  GRAD.:     6.979 HEAT: -236.8223
 CYCLE:   231 TIME:   0.023 TIME LEFT:  2.00D  GRAD.:     6.963 HEAT: -236.8406
 CYCLE:   232 TIME:   0.023 TIME LEFT:  2.00D  GRAD.:     9.670 HEAT: -236.8709
 CYCLE:   233 TIME:   0.023 TIME LEFT:  2.00D  GRAD.:     7.754 HEAT: -236.8993
 CYCLE:   234 TIME:   0.016 TIME LEFT:  2.00D  GRAD.:     6.666 HEAT: -236.9326
 CYCLE:   235 TIME:   0.023 TIME LEFT:  2.00D  GRAD.:     5.504 HEAT: -236.9559
 CYCLE:   236 TIME:   0.023 TIME LEFT:  2.00D  GRAD.:     5.054 HEAT: -236.9792
 CYCLE:   237 TIME:   0.016 TIME LEFT:  2.00D  GRAD.:     4.275 HEAT: -237.0001
 CYCLE:   238 TIME:   0.023 TIME LEFT:  2.00D  GRAD.:     3.490 HEAT: -237.0192
 CYCLE:   239 TIME:   0.023 TIME LEFT:  2.00D  GRAD.:     4.407 HEAT: -237.0305
 CYCLE:   240 TIME:   0.016 TIME LEFT:  2.00D  GRAD.:     3.175 HEAT: -237.0400
 CYCLE:   241 TIME:   0.023 TIME LEFT:  2.00D  GRAD.:     3.282 HEAT: -237.0481
 CYCLE:   242 TIME:   0.016 TIME LEFT:  2.00D  GRAD.:     4.720 HEAT: -237.0602
 CYCLE:   243 TIME:   0.016 TIME LEFT:  2.00D  GRAD.:     5.228 HEAT: -237.0784
 CYCLE:   244 TIME:   0.023 TIME LEFT:  2.00D  GRAD.:     3.791 HEAT: -237.0932
 CYCLE:   245 TIME:   0.023 TIME LEFT:  2.00D  GRAD.:     2.364 HEAT: -237.1035
 CYCLE:   246 TIME:   0.016 TIME LEFT:  2.00D  GRAD.:     2.102 HEAT: -237.1139
 CYCLE:   247 TIME:   0.023 TIME LEFT:  2.00D  GRAD.:     2.664 HEAT: -237.1215
 CYCLE:   248 TIME:   0.016 TIME LEFT:  2.00D  GRAD.:     2.025 HEAT: -237.1271
 CYCLE:   249 TIME:   0.023 TIME LEFT:  2.00D  GRAD.:     1.859 HEAT: -237.1332
 CYCLE:   250 TIME:   0.023 TIME LEFT:  2.00D  GRAD.:     1.877 HEAT: -237.1371
 CYCLE:   251 TIME:   0.023 TIME LEFT:  2.00D  GRAD.:     2.055 HEAT: -237.1389
 CYCLE:   252 TIME:   0.016 TIME LEFT:  2.00D  GRAD.:     1.142 HEAT: -237.1417
 CYCLE:   253 TIME:   0.023 TIME LEFT:  2.00D  GRAD.:     1.081 HEAT: -237.1436
 CYCLE:   254 TIME:   0.016 TIME LEFT:  2.00D  GRAD.:     1.119 HEAT: -237.1457
 CYCLE:   255 TIME:   0.023 TIME LEFT:  2.00D  GRAD.:     1.433 HEAT: -237.1473
 CYCLE:   256 TIME:   0.016 TIME LEFT:  2.00D  GRAD.:     0.859 HEAT: -237.1488
 CYCLE:   257 TIME:   0.023 TIME LEFT:  2.00D  GRAD.:     0.755 HEAT: -237.1502
 CYCLE:   258 TIME:   0.023 TIME LEFT:  2.00D  GRAD.:     0.544 HEAT: -237.1508
 CYCLE:   259 TIME:   0.016 TIME LEFT:  2.00D  GRAD.:     0.462 HEAT: -237.1512
 CYCLE:   260 TIME:   0.023 TIME LEFT:  2.00D  GRAD.:     0.376 HEAT: -237.1514
 CYCLE:   261 TIME:   0.023 TIME LEFT:  2.00D  GRAD.:     0.311 HEAT: -237.1515
 CYCLE:   262 TIME:   0.023 TIME LEFT:  2.00D  GRAD.:     0.259 HEAT: -237.1516
 CYCLE:   263 TIME:   0.016 TIME LEFT:  2.00D  GRAD.:     0.264 HEAT: -237.1517
 CYCLE:   264 TIME:   0.023 TIME LEFT:  2.00D  GRAD.:     0.317 HEAT: -237.1518
 CYCLE:   265 TIME:   0.023 TIME LEFT:  2.00D  GRAD.:     0.369 HEAT: -237.1519
 CYCLE:   266 TIME:   0.031 TIME LEFT:  2.00D  GRAD.:     0.535 HEAT: -237.1523
 CYCLE:   267 TIME:   0.039 TIME LEFT:  2.00D  GRAD.:     0.469 HEAT: -237.1525
 CYCLE:   268 TIME:   0.031 TIME LEFT:  2.00D  GRAD.:     0.526 HEAT: -237.1531
 CYCLE:   269 TIME:   0.023 TIME LEFT:  2.00D  GRAD.:     0.599 HEAT: -237.1535
 CYCLE:   270 TIME:   0.016 TIME LEFT:  2.00D  GRAD.:     0.676 HEAT: -237.1541
 CYCLE:   271 TIME:   0.023 TIME LEFT:  2.00D  GRAD.:     0.882 HEAT: -237.1554
 CYCLE:   272 TIME:   0.016 TIME LEFT:  2.00D  GRAD.:     0.766 HEAT: -237.1564
 CYCLE:   273 TIME:   0.023 TIME LEFT:  2.00D  GRAD.:     0.845 HEAT: -237.1577
 CYCLE:   274 TIME:   0.023 TIME LEFT:  2.00D  GRAD.:     1.935 HEAT: -237.1564
 CYCLE:   275 TIME:   0.016 TIME LEFT:  2.00D  GRAD.:     0.536 HEAT: -237.1587
 CYCLE:   276 TIME:   0.016 TIME LEFT:  2.00D  GRAD.:     0.435 HEAT: -237.1590
 CYCLE:   277 TIME:   0.023 TIME LEFT:  2.00D  GRAD.:     0.669 HEAT: -237.1599
 CYCLE:   278 TIME:   0.023 TIME LEFT:  2.00D  GRAD.:     0.813 HEAT: -237.1605
 CYCLE:   279 TIME:   0.023 TIME LEFT:  2.00D  GRAD.:     0.939 HEAT: -237.1616
 CYCLE:   280 TIME:   0.016 TIME LEFT:  2.00D  GRAD.:     0.954 HEAT: -237.1624
 CYCLE:   281 TIME:   0.023 TIME LEFT:  2.00D  GRAD.:     0.482 HEAT: -237.1630
 CYCLE:   282 TIME:   0.023 TIME LEFT:  2.00D  GRAD.:     0.232 HEAT: -237.1633
 CYCLE:   283 TIME:   0.016 TIME LEFT:  2.00D  GRAD.:     0.148 HEAT: -237.1634
 CYCLE:   284 TIME:   0.023 TIME LEFT:  2.00D  GRAD.:     0.130 HEAT: -237.1634
 CYCLE:   285 TIME:   0.016 TIME LEFT:  2.00D  GRAD.:     0.121 HEAT: -237.1634
 CYCLE:   286 TIME:   0.023 TIME LEFT:  2.00D  GRAD.:     0.128 HEAT: -237.1634
 CYCLE:   287 TIME:   0.016 TIME LEFT:  2.00D  GRAD.:     0.130 HEAT: -237.1634
 CYCLE:   288 TIME:   0.023 TIME LEFT:  2.00D  GRAD.:     0.163 HEAT: -237.1635
 CYCLE:   289 TIME:   0.016 TIME LEFT:  2.00D  GRAD.:     0.202 HEAT: -237.1635
 CYCLE:   290 TIME:   0.023 TIME LEFT:  2.00D  GRAD.:     0.271 HEAT: -237.1636
 CYCLE:   291 TIME:   0.016 TIME LEFT:  2.00D  GRAD.:     0.233 HEAT: -237.1637
 CYCLE:   292 TIME:   0.023 TIME LEFT:  2.00D  GRAD.:     0.191 HEAT: -237.1638
 CYCLE:   293 TIME:   0.016 TIME LEFT:  2.00D  GRAD.:     0.174 HEAT: -237.1638
 CYCLE:   294 TIME:   0.023 TIME LEFT:  2.00D  GRAD.:     0.220 HEAT: -237.1640
 CYCLE:   295 TIME:   0.023 TIME LEFT:  2.00D  GRAD.:     0.218 HEAT: -237.1641
 CYCLE:   296 TIME:   0.016 TIME LEFT:  2.00D  GRAD.:     0.235 HEAT: -237.1642
 CYCLE:   297 TIME:   0.023 TIME LEFT:  2.00D  GRAD.:     0.140 HEAT: -237.1643
 CYCLE:   298 TIME:   0.016 TIME LEFT:  2.00D  GRAD.:     0.066 HEAT: -237.1643
 CYCLE:   299 TIME:   0.016 TIME LEFT:  2.00D  GRAD.:     0.042 HEAT: -237.1643

     GRADIENT =  0.04159 IS LESS THAN CUTOFF =  0.05000



 -------------------------------------------------------------------------------
 AUX LARGE CHARGE=0 SINGLET  PM6  OPT PRECISE PRTXYZ
 CN336.pdb
 30


     GEOMETRY OPTIMISED USING EIGENVECTOR FOLLOWING (EF).     
     SCF FIELD WAS ACHIEVED                                   


                              PM6 CALCULATION
                                                       MOPAC2016 (Version: 20.225L)
                                                       Fri Aug 14 20:43:40 2020
                                                       No. of days remaining = 364




          FINAL HEAT OF FORMATION =       -237.16433 KCAL/MOL =    -992.29556 KJ/MOL


          TOTAL ENERGY            =      -3381.96481 EV
          ELECTRONIC ENERGY       =     -20509.98258 EV  POINT GROUP:     C1  
          CORE-CORE REPULSION     =      17128.01777 EV
          COSMO AREA              =        257.83 SQUARE ANGSTROMS
          COSMO VOLUME            =        272.51 CUBIC ANGSTROMS

          GRADIENT NORM           =          0.04159 = 0.00759 PER ATOM
          IONIZATION POTENTIAL    =          8.791249 EV
          HOMO LUMO ENERGIES (EV) =         -8.791 -0.858
          NO. OF FILLED LEVELS    =         48
          MOLECULAR WEIGHT        =        252.2232

          MOLECULAR DIMENSIONS (Angstroms)

            Atom       Atom       Distance
            H    26    H    25    10.49577
            H    24    O    11     7.04765
            H    22    H    23     2.82522


          SCF CALCULATIONS        =        316
 
          WALL-CLOCK TIME         =          6.594 SECONDS
          COMPUTATION TIME        =         12.516 SECONDS




   ATOM   CHEMICAL          X               Y               Z
  NUMBER   SYMBOL      (ANGSTROMS)     (ANGSTROMS)     (ANGSTROMS)
 
     1       C          5.28084885  *  -7.40932964  *   0.66913562  *
     2       C          4.96454686  *  -8.66634695  *   0.14086853  *
     3       C          6.00483018  *  -9.43198955  *  -0.39649124  *
     4       C          7.35116832  *  -8.98413865  *  -0.42725522  *
     5       C          7.65347080  *  -7.69368437  *   0.10106057  *
     6       C          6.61335437  *  -6.93030026  *   0.65008279  *
     7       C          8.39900698  *  -9.81431173  *  -0.98265828  *
     8       O          9.74368575  *  -9.24933707  *  -0.94892711  *
     9       C          9.99158502  *  -8.00809952  *  -0.44614457  *
    10       C          9.01150564  *  -7.22467512  *   0.06801326  *
    11       O          8.41582172  * -10.90332132  *  -1.47883878  *
    12       C         11.44431808  *  -7.68839021  *  -0.57366466  *
    13       C         11.99339885  *  -6.90539283  *   0.63562941  *
    14       O          4.27136032  *  -6.67196060  *   1.19265791  *
    15       O          5.77909618  * -10.66386375  *  -0.92322158  *
    16       C         13.51323250  *  -6.81336605  *   0.59668295  *
    17       O         11.41607144  *  -5.59285626  *   0.67495921  *
    18       O          6.75538402  *  -5.65252078  *   1.17454303  *
    19       H          3.93573845  *  -9.01292878  *   0.16083871  *
    20       H          9.25111601  *  -6.22861277  *   0.45112780  *
    21       H         12.02405307  *  -8.63156343  *  -0.71426117  *
    22       H         11.60700506  *  -7.11894230  *  -1.51527517  *
    23       H         11.62796376  *  -7.34030116  *   1.59724010  *
    24       H          4.61416682  *  -5.79023556  *   1.54735383  *
    25       H          4.82057195  * -10.93163657  *  -0.87660504  *
    26       H         13.87693664  *  -6.12894539  *   1.37676342  *
    27       H         13.89396666  *  -6.44138829  *  -0.36066658  *
    28       H         13.98468766  *  -7.78717290  *   0.77794046  *
    29       H         11.72926774  *  -5.03704483  *  -0.06407883  *
    30       H          7.69300448  *  -5.50537155  *   1.46731297  *

                             CARTESIAN COORDINATES

   1    C        5.280848851    -7.409329635     0.669135617
   2    C        4.964546857    -8.666346946     0.140868532
   3    C        6.004830177    -9.431989545    -0.396491241
   4    C        7.351168316    -8.984138650    -0.427255219
   5    C        7.653470801    -7.693684366     0.101060567
   6    C        6.613354370    -6.930300259     0.650082788
   7    C        8.399006975    -9.814311733    -0.982658283
   8    O        9.743685753    -9.249337066    -0.948927108
   9    C        9.991585019    -8.008099521    -0.446144566
  10    C        9.011505636    -7.224675124     0.068013257
  11    O        8.415821721   -10.903321316    -1.478838779
  12    C       11.444318077    -7.688390213    -0.573664657
  13    C       11.993398851    -6.905392830     0.635629413
  14    O        4.271360323    -6.671960602     1.192657913
  15    O        5.779096177   -10.663863745    -0.923221575
  16    C       13.513232501    -6.813366053     0.596682945
  17    O       11.416071441    -5.592856259     0.674959207
  18    O        6.755384021    -5.652520781     1.174543031
  19    H        3.935738453    -9.012928785     0.160838713
  20    H        9.251116013    -6.228612773     0.451127799
  21    H       12.024053068    -8.631563431    -0.714261174
  22    H       11.607005057    -7.118942296    -1.515275165
  23    H       11.627963758    -7.340301158     1.597240098
  24    H        4.614166815    -5.790235556     1.547353829
  25    H        4.820571954   -10.931636573    -0.876605044
  26    H       13.876936640    -6.128945389     1.376763415
  27    H       13.893966663    -6.441388294    -0.360666580
  28    H       13.984687664    -7.787172899     0.777940457
  29    H       11.729267739    -5.037044828    -0.064078835
  30    H        7.693004481    -5.505371545     1.467312965


           Empirical Formula: C12 H12 O6  =    30 atoms



      MOLECULAR POINT GROUP   :   C1  


                  EIGENVALUES  
 -32.44831 -31.78214 -31.69859 -31.49019 -30.72974 -30.66482 -30.19158 -28.22963
 -27.77166 -26.77784 -26.14970 -24.74502 -23.78471 -23.01677 -22.26943 -21.54844
 -20.63539 -19.27333 -18.65934 -17.92866 -17.58386 -17.36282 -17.02359 -16.94726
 -16.48246 -15.88534 -15.71804 -15.59481 -15.25583 -14.87184 -14.67791 -14.42398
 -14.31884 -13.95549 -13.76491 -13.70880 -13.48675 -13.39089 -13.33626 -13.10667
 -12.78318 -12.45085 -11.92233 -11.31612 -10.94721 -10.67009  -9.68783  -8.79125
  -0.85776  -0.47988   0.61646   0.91181   1.02825   1.53978   1.64414   2.10368
   2.18061   2.23353   2.58224   2.80856   2.99666   3.15509   3.30105   3.49682
   3.59641   3.67906   3.81476   4.06285   4.29787   4.41511   4.50879   4.69809
   4.77990   4.82180   4.93840   5.00155   5.08136   5.11700   5.12868   5.38236
   5.53006   5.74554   5.98504   6.11534


              NET ATOMIC CHARGES AND DIPOLE CONTRIBUTIONS

  ATOM NO.   TYPE          CHARGE      No. of ELECS.   s-Pop       p-Pop       
    1          C           0.445645        3.5544     1.07349     2.48086
    2          C          -0.555301        4.5553     1.10218     3.45312
    3          C           0.502624        3.4974     1.07116     2.42622
    4          C          -0.489898        4.4899     1.08951     3.40039
    5          C           0.298811        3.7012     1.07037     2.63082
    6          C          -0.125035        4.1250     1.07678     3.04826
    7          C           0.698029        3.3020     1.07859     2.22338
    8          O          -0.456170        6.4562     1.84392     4.61225
    9          C           0.452134        3.5479     1.09324     2.45462
   10          C          -0.512530        4.5125     1.10244     3.41010
   11          O          -0.407236        6.4072     1.84861     4.55862
   12          C          -0.456404        4.4564     1.10987     3.34653
   13          C           0.270545        3.7295     1.08885     2.64061
   14          O          -0.429259        6.4293     1.81105     4.61821
   15          O          -0.426391        6.4264     1.80622     4.62017
   16          C          -0.572336        4.5723     1.09730     3.47503
   17          O          -0.573355        6.5734     1.81755     4.75580
   18          O          -0.482832        6.4828     1.81230     4.67053
   19          H           0.210687        0.7893     0.78931
   20          H           0.214647        0.7854     0.78535
   21          H           0.202114        0.7979     0.79789
   22          H           0.190315        0.8097     0.80969
   23          H           0.140708        0.8593     0.85929
   24          H           0.352116        0.6479     0.64788
   25          H           0.333229        0.6668     0.66677
   26          H           0.181570        0.8184     0.81843
   27          H           0.167053        0.8329     0.83295
   28          H           0.175402        0.8246     0.82460
   29          H           0.313620        0.6864     0.68638
   30          H           0.337500        0.6625     0.66250
 DIPOLE           X         Y         Z       TOTAL
 POINT-CHG.     2.092     2.280     1.384     3.389
 HYBRID         0.100     0.455    -0.356     0.587
 SUM            2.192     2.735     1.028     3.652


          ATOMIC ORBITAL ELECTRON POPULATIONS

     Atom    s        px        py        pz   
    1  C   1.07349   0.82381   0.85300   0.80405
    2  C   1.10218   1.11912   1.06965   1.26435
    3  C   1.07116   0.89450   0.75681   0.77490
    4  C   1.08951   1.01072   1.08136   1.30831
    5  C   1.07037   0.91785   0.88448   0.82848
    6  C   1.07678   0.99518   0.88004   1.17304
    7  C   1.07859   0.74873   0.77365   0.70099
    8  O   1.84392   1.50285   1.39570   1.71370
    9  C   1.09324   0.90259   0.76229   0.78975
   10  C   1.10244   1.00833   1.15053   1.25124
   11  O   1.84861   1.77060   1.31124   1.47678
   12  C   1.10987   1.03682   1.17780   1.13192
   13  C   1.08885   0.88684   0.76387   0.98990
   14  O   1.81105   1.44940   1.43132   1.73748
   15  O   1.80622   1.44171   1.41108   1.76738
   16  C   1.09730   1.07134   1.20180   1.20189
   17  O   1.81755   1.76901   1.36383   1.62297
   18  O   1.81230   1.46964   1.38009   1.82080
   19  H   0.78931
   20  H   0.78535
   21  H   0.79789
   22  H   0.80969
   23  H   0.85929
   24  H   0.64788
   25  H   0.66677
   26  H   0.81843
   27  H   0.83295
   28  H   0.82460
   29  H   0.68638
   30  H   0.66250

 **********************
 *                    *
 * JOB ENDED NORMALLY *
 *                    *
 **********************



 TOTAL JOB TIME:             6.64 SECONDS

 == MOPAC DONE ==
