 *******************************************************************************
 ** Site#: 35412        For non-commercial use only    Version 20.225L 64BITS **
 *******************************************************************************
 ** Cite this program as: MOPAC2016, Version: 20.225L, James J. P. Stewart,   **
 ** Stewart Computational Chemistry, web: HTTP://OpenMOPAC.net. Days left: 364**
 *******************************************************************************
 **                                                                           **
 **                                MOPAC2016                                  **
 **                                                                           **
 *******************************************************************************

                              PM6 CALCULATION RESULTS

 *******************************************************************************
 *  CALCULATION DONE:                                Fri Aug 14 20:43:48 2020  *
 *  PM6        - The PM6 Hamiltonian to be used
 *  SINGLET    - SPIN STATE DEFINED AS A SINGLET
 *  OPT        - OPTIMIZE COORDINATES OF ALL ATOMS
 *
 *
 *
 *                 CHARGE ON SYSTEM = 0
 *
 *
 *
 *  PRECISE    - CRITERIA TO BE INCREASED BY 100 TIMES
 *  T=         - A TIME OF 172800.0 SECONDS REQUESTED
 *  DUMP=N     - RESTART FILE WRITTEN EVERY 7200.0 SECONDS REQUESTED
 *  AUX        - OUTPUT AUXILIARY INFORMATION
 *  PRTXYZ     - PRINT CARTESIAN COORDINATES
 *  LARGE      - EXPANDED OUTPUT TO BE PRINTED
 *******************************************************************************
 AUX LARGE CHARGE=0 SINGLET  PM6  OPT PRECISE PRTXYZ
 CN339.pdb
 20
   ATOM   CHEMICAL          X               Y               Z
  NUMBER   SYMBOL      (ANGSTROMS)     (ANGSTROMS)     (ANGSTROMS)
 
     1       C          6.03000000  *  -7.16400000  *   0.08900000  *
     2       C          6.06600000  *  -8.54800000  *   0.20800000  *
     3       C          7.28200000  *  -9.22000000  *   0.14800000  *
     4       C          8.46900000  *  -8.51900000  *  -0.03300000  *
     5       C          8.43000000  *  -7.13000000  *  -0.15500000  *
     6       C          7.21300000  *  -6.45700000  *  -0.09300000  *
     7       C          9.77600000  *  -9.31300000  *  -0.09700000  *
     8       O          4.89200000  *  -9.27000000  *   0.38800000  *
     9       C         11.04300000  *  -8.45500000  *   0.13900000  *
    10       O         12.20200000  *  -9.28100000  *   0.04300000  *
    11       H          5.10200000  *  -6.64400000  *   0.13400000  *
    12       H          7.30500000  * -10.27900000  *   0.23900000  *
    13       H          9.31600000  *  -6.57500000  *  -0.29700000  *
    14       H          7.18700000  *  -5.39900000  *  -0.18600000  *
    15       H          9.71800000  * -10.14100000  *   0.62600000  *
    16       H          9.83500000  *  -9.76900000  *  -1.09600000  *
    17       H          4.10300000  *  -8.65900000  *   0.41000000  *
    18       H         11.10100000  *  -7.66300000  *  -0.62300000  *
    19       H         11.00100000  *  -7.99900000  *   1.14000000  *
    20       H         12.16500000  *  -9.99200000  *   0.73200000  *
 


          CARTESIAN COORDINATES 

    NO.       ATOM           X           Y           Z

     1         C          6.0300     -7.1640      0.0890
     2         C          6.0660     -8.5480      0.2080
     3         C          7.2820     -9.2200      0.1480
     4         C          8.4690     -8.5190     -0.0330
     5         C          8.4300     -7.1300     -0.1550
     6         C          7.2130     -6.4570     -0.0930
     7         C          9.7760     -9.3130     -0.0970
     8         O          4.8920     -9.2700      0.3880
     9         C         11.0430     -8.4550      0.1390
    10         O         12.2020     -9.2810      0.0430
    11         H          5.1020     -6.6440      0.1340
    12         H          7.3050    -10.2790      0.2390
    13         H          9.3160     -6.5750     -0.2970
    14         H          7.1870     -5.3990     -0.1860
    15         H          9.7180    -10.1410      0.6260
    16         H          9.8350     -9.7690     -1.0960
    17         H          4.1030     -8.6590      0.4100
    18         H         11.1010     -7.6630     -0.6230
    19         H         11.0010     -7.9990      1.1400
    20         H         12.1650     -9.9920      0.7320

 General Reference for PM6:
 "Optimization of Parameters for Semiempirical Methods V: Modification of NDDO Approximations
 and Application to 70 Elements", J. J. P. Stewart, J. Mol. Mod., 13, 1173-1213 (2007)
 URL: https://link.springer.com/article/10.1007/s00894-007-0233-4

           Empirical Formula: C8 H10 O2  =    20 atoms



      MOLECULAR POINT GROUP   :   C1  


 SINGLET STATE CALCULATION


      RHF CALCULATION, NO. OF DOUBLY OCCUPIED LEVELS = 27


          Geometry optimization using EF

          DIAGONAL MATRIX USED AS START HESSIAN

 CYCLE:     1 TIME:   0.016 TIME LEFT:  2.00D  GRAD.:    67.522 HEAT: -72.07273
 CYCLE:     2 TIME:   0.023 TIME LEFT:  2.00D  GRAD.:    45.757 HEAT: -73.88482
 CYCLE:     3 TIME:   0.016 TIME LEFT:  2.00D  GRAD.:    69.878 HEAT: -74.15945
 CYCLE:     4 TIME:   0.008 TIME LEFT:  2.00D  GRAD.:    61.624 HEAT: -74.34057
 CYCLE:     5 TIME:   0.016 TIME LEFT:  2.00D  GRAD.:    48.044 HEAT: -74.72621
 CYCLE:     6 TIME:   0.016 TIME LEFT:  2.00D  GRAD.:    45.213 HEAT: -74.80325
 CYCLE:     7 TIME:   0.023 TIME LEFT:  2.00D  GRAD.:    18.210 HEAT: -75.48554
 CYCLE:     8 TIME:   0.016 TIME LEFT:  2.00D  GRAD.:    19.696 HEAT: -75.52964
 CYCLE:     9 TIME:   0.016 TIME LEFT:  2.00D  GRAD.:    12.539 HEAT: -75.63281
 CYCLE:    10 TIME:   0.016 TIME LEFT:  2.00D  GRAD.:     7.216 HEAT: -75.69019
 CYCLE:    11 TIME:   0.016 TIME LEFT:  2.00D  GRAD.:     8.149 HEAT: -75.71894
 CYCLE:    12 TIME:   0.008 TIME LEFT:  2.00D  GRAD.:     6.656 HEAT: -75.76247
 CYCLE:    13 TIME:   0.008 TIME LEFT:  2.00D  GRAD.:     8.481 HEAT: -75.78620
 CYCLE:    14 TIME:   0.016 TIME LEFT:  2.00D  GRAD.:     4.420 HEAT: -75.81220
 CYCLE:    15 TIME:   0.008 TIME LEFT:  2.00D  GRAD.:     4.085 HEAT: -75.82097
 CYCLE:    16 TIME:   0.016 TIME LEFT:  2.00D  GRAD.:     3.357 HEAT: -75.83072
 CYCLE:    17 TIME:   0.016 TIME LEFT:  2.00D  GRAD.:     3.872 HEAT: -75.83597
 CYCLE:    18 TIME:   0.016 TIME LEFT:  2.00D  GRAD.:     2.984 HEAT: -75.84123
 CYCLE:    19 TIME:   0.008 TIME LEFT:  2.00D  GRAD.:     2.040 HEAT: -75.84358
 CYCLE:    20 TIME:   0.008 TIME LEFT:  2.00D  GRAD.:     1.511 HEAT: -75.84575
 CYCLE:    21 TIME:   0.016 TIME LEFT:  2.00D  GRAD.:     1.261 HEAT: -75.84763
 CYCLE:    22 TIME:   0.008 TIME LEFT:  2.00D  GRAD.:     1.682 HEAT: -75.84979
 CYCLE:    23 TIME:   0.008 TIME LEFT:  2.00D  GRAD.:     1.642 HEAT: -75.85305
 CYCLE:    24 TIME:   0.016 TIME LEFT:  2.00D  GRAD.:     1.627 HEAT: -75.85546
 CYCLE:    25 TIME:   0.023 TIME LEFT:  2.00D  GRAD.:     1.642 HEAT: -75.85925
 CYCLE:    26 TIME:   0.023 TIME LEFT:  2.00D  GRAD.:     1.667 HEAT: -75.86630
 CYCLE:    27 TIME:   0.008 TIME LEFT:  2.00D  GRAD.:     1.315 HEAT: -75.86929
 CYCLE:    28 TIME:   0.016 TIME LEFT:  2.00D  GRAD.:     1.340 HEAT: -75.87237
 CYCLE:    29 TIME:   0.008 TIME LEFT:  2.00D  GRAD.:     1.274 HEAT: -75.87552
 CYCLE:    30 TIME:   0.008 TIME LEFT:  2.00D  GRAD.:     1.097 HEAT: -75.87827
 CYCLE:    31 TIME:   0.008 TIME LEFT:  2.00D  GRAD.:     0.905 HEAT: -75.88021
 CYCLE:    32 TIME:   0.008 TIME LEFT:  2.00D  GRAD.:     1.039 HEAT: -75.88262
 CYCLE:    33 TIME:   0.008 TIME LEFT:  2.00D  GRAD.:     1.350 HEAT: -75.88676
 CYCLE:    34 TIME:   0.008 TIME LEFT:  2.00D  GRAD.:     1.434 HEAT: -75.89065
 CYCLE:    35 TIME:   0.016 TIME LEFT:  2.00D  GRAD.:     1.931 HEAT: -75.89528
 CYCLE:    36 TIME:   0.008 TIME LEFT:  2.00D  GRAD.:     2.135 HEAT: -75.90176
 CYCLE:    37 TIME:   0.008 TIME LEFT:  2.00D  GRAD.:     2.603 HEAT: -75.91256
 CYCLE:    38 TIME:   0.016 TIME LEFT:  2.00D  GRAD.:     3.265 HEAT: -75.93370
 CYCLE:    39 TIME:   0.008 TIME LEFT:  2.00D  GRAD.:     3.413 HEAT: -75.95789
 CYCLE:    40 TIME:   0.008 TIME LEFT:  2.00D  GRAD.:     3.910 HEAT: -75.98140
 CYCLE:    41 TIME:   0.008 TIME LEFT:  2.00D  GRAD.:     5.145 HEAT: -75.98669
 CYCLE:    42 TIME:   0.016 TIME LEFT:  2.00D  GRAD.:     5.300 HEAT: -76.01585
 CYCLE:    43 TIME:   0.008 TIME LEFT:  2.00D  GRAD.:     2.846 HEAT: -76.02564
 CYCLE:    44 TIME:   0.008 TIME LEFT:  2.00D  GRAD.:     1.868 HEAT: -76.04345
 CYCLE:    45 TIME:   0.016 TIME LEFT:  2.00D  GRAD.:     3.886 HEAT: -76.06637
 CYCLE:    46 TIME:   0.008 TIME LEFT:  2.00D  GRAD.:     4.271 HEAT: -76.09052
 CYCLE:    47 TIME:   0.008 TIME LEFT:  2.00D  GRAD.:     5.859 HEAT: -76.12292
 CYCLE:    48 TIME:   0.008 TIME LEFT:  2.00D  GRAD.:     6.014 HEAT: -76.13766
 CYCLE:    49 TIME:   0.008 TIME LEFT:  2.00D  GRAD.:     3.635 HEAT: -76.16231
 CYCLE:    50 TIME:   0.008 TIME LEFT:  2.00D  GRAD.:     2.002 HEAT: -76.17752
 CYCLE:    51 TIME:   0.008 TIME LEFT:  2.00D  GRAD.:     2.609 HEAT: -76.19864
 CYCLE:    52 TIME:   0.016 TIME LEFT:  2.00D  GRAD.:     4.054 HEAT: -76.21891
 CYCLE:    53 TIME:   0.008 TIME LEFT:  2.00D  GRAD.:     2.295 HEAT: -76.23336
 CYCLE:    54 TIME:   0.008 TIME LEFT:  2.00D  GRAD.:     1.949 HEAT: -76.24386
 CYCLE:    55 TIME:   0.008 TIME LEFT:  2.00D  GRAD.:     2.032 HEAT: -76.25618
 CYCLE:    56 TIME:   0.008 TIME LEFT:  2.00D  GRAD.:     1.854 HEAT: -76.26288
 CYCLE:    57 TIME:   0.008 TIME LEFT:  2.00D  GRAD.:     1.611 HEAT: -76.26915
 CYCLE:    58 TIME:   0.016 TIME LEFT:  2.00D  GRAD.:     1.928 HEAT: -76.27425
 CYCLE:    59 TIME:   0.008 TIME LEFT:  2.00D  GRAD.:     2.005 HEAT: -76.28110
 CYCLE:    60 TIME:   0.008 TIME LEFT:  2.00D  GRAD.:     1.471 HEAT: -76.28673
 CYCLE:    61 TIME:   0.008 TIME LEFT:  2.00D  GRAD.:     1.556 HEAT: -76.29310
 CYCLE:    62 TIME:   0.008 TIME LEFT:  2.00D  GRAD.:     1.687 HEAT: -76.29921
 CYCLE:    63 TIME:   0.016 TIME LEFT:  2.00D  GRAD.:     1.827 HEAT: -76.30763
 CYCLE:    64 TIME:   0.008 TIME LEFT:  2.00D  GRAD.:     1.657 HEAT: -76.31566
 CYCLE:    65 TIME:   0.008 TIME LEFT:  2.00D  GRAD.:     1.967 HEAT: -76.31884
 CYCLE:    66 TIME:   0.008 TIME LEFT:  2.00D  GRAD.:     1.872 HEAT: -76.32359
 CYCLE:    67 TIME:   0.016 TIME LEFT:  2.00D  GRAD.:     1.151 HEAT: -76.32720
 CYCLE:    68 TIME:   0.008 TIME LEFT:  2.00D  GRAD.:     1.180 HEAT: -76.33288
 CYCLE:    69 TIME:   0.008 TIME LEFT:  2.00D  GRAD.:     2.057 HEAT: -76.34038
 CYCLE:    70 TIME:   0.008 TIME LEFT:  2.00D  GRAD.:     2.795 HEAT: -76.35230
 CYCLE:    71 TIME:   0.008 TIME LEFT:  2.00D  GRAD.:     3.029 HEAT: -76.36922
 CYCLE:    72 TIME:   0.008 TIME LEFT:  2.00D  GRAD.:     2.265 HEAT: -76.38029
 CYCLE:    73 TIME:   0.008 TIME LEFT:  2.00D  GRAD.:     2.596 HEAT: -76.39458
 CYCLE:    74 TIME:   0.008 TIME LEFT:  2.00D  GRAD.:     2.797 HEAT: -76.40366
 CYCLE:    75 TIME:   0.016 TIME LEFT:  2.00D  GRAD.:     2.144 HEAT: -76.41810
 CYCLE:    76 TIME:   0.008 TIME LEFT:  2.00D  GRAD.:     2.590 HEAT: -76.42831
 CYCLE:    77 TIME:   0.008 TIME LEFT:  2.00D  GRAD.:     1.772 HEAT: -76.43411
 CYCLE:    78 TIME:   0.008 TIME LEFT:  2.00D  GRAD.:     2.368 HEAT: -76.44041
 CYCLE:    79 TIME:   0.016 TIME LEFT:  2.00D  GRAD.:     3.335 HEAT: -76.45352
 CYCLE:    80 TIME:   0.008 TIME LEFT:  2.00D  GRAD.:     2.498 HEAT: -76.46840
 CYCLE:    81 TIME:   0.008 TIME LEFT:  2.00D  GRAD.:     3.643 HEAT: -76.47681
 CYCLE:    82 TIME:   0.008 TIME LEFT:  2.00D  GRAD.:     2.310 HEAT: -76.48975
 CYCLE:    83 TIME:   0.016 TIME LEFT:  2.00D  GRAD.:     3.056 HEAT: -76.49903
 CYCLE:    84 TIME:   0.008 TIME LEFT:  2.00D  GRAD.:     2.839 HEAT: -76.50933
 CYCLE:    85 TIME:   0.008 TIME LEFT:  2.00D  GRAD.:     2.760 HEAT: -76.52528
 CYCLE:    86 TIME:   0.008 TIME LEFT:  2.00D  GRAD.:     4.286 HEAT: -76.53588
 CYCLE:    87 TIME:   0.016 TIME LEFT:  2.00D  GRAD.:     5.812 HEAT: -76.53983
 CYCLE:    88 TIME:   0.008 TIME LEFT:  2.00D  GRAD.:     2.450 HEAT: -76.57438
 CYCLE:    89 TIME:   0.008 TIME LEFT:  2.00D  GRAD.:     3.918 HEAT: -76.58137
 CYCLE:    90 TIME:   0.008 TIME LEFT:  2.00D  GRAD.:     3.651 HEAT: -76.59565
 CYCLE:    91 TIME:   0.008 TIME LEFT:  2.00D  GRAD.:     2.418 HEAT: -76.61216
 CYCLE:    92 TIME:   0.008 TIME LEFT:  2.00D  GRAD.:     3.698 HEAT: -76.62486
 CYCLE:    93 TIME:   0.016 TIME LEFT:  2.00D  GRAD.:     2.576 HEAT: -76.63785
 CYCLE:    94 TIME:   0.008 TIME LEFT:  2.00D  GRAD.:     2.750 HEAT: -76.65498
 CYCLE:    95 TIME:   0.008 TIME LEFT:  2.00D  GRAD.:     3.923 HEAT: -76.66250
 CYCLE:    96 TIME:   0.008 TIME LEFT:  2.00D  GRAD.:     2.649 HEAT: -76.67548
 CYCLE:    97 TIME:   0.016 TIME LEFT:  2.00D  GRAD.:     2.309 HEAT: -76.68187
 CYCLE:    98 TIME:   0.008 TIME LEFT:  2.00D  GRAD.:     1.852 HEAT: -76.69027
 CYCLE:    99 TIME:   0.008 TIME LEFT:  2.00D  GRAD.:     2.270 HEAT: -76.69591
 CYCLE:   100 TIME:   0.008 TIME LEFT:  2.00D  GRAD.:     1.598 HEAT: -76.69964
 CYCLE:   101 TIME:   0.016 TIME LEFT:  2.00D  GRAD.:     1.168 HEAT: -76.70282
 CYCLE:   102 TIME:   0.008 TIME LEFT:  2.00D  GRAD.:     1.558 HEAT: -76.70772
 CYCLE:   103 TIME:   0.008 TIME LEFT:  2.00D  GRAD.:     1.650 HEAT: -76.71070
 CYCLE:   104 TIME:   0.008 TIME LEFT:  2.00D  GRAD.:     1.347 HEAT: -76.71521
 CYCLE:   105 TIME:   0.008 TIME LEFT:  2.00D  GRAD.:     1.108 HEAT: -76.71831
 CYCLE:   106 TIME:   0.008 TIME LEFT:  2.00D  GRAD.:     0.911 HEAT: -76.71958
 CYCLE:   107 TIME:   0.016 TIME LEFT:  2.00D  GRAD.:     0.656 HEAT: -76.72037
 CYCLE:   108 TIME:   0.008 TIME LEFT:  2.00D  GRAD.:     0.575 HEAT: -76.72090
 CYCLE:   109 TIME:   0.016 TIME LEFT:  2.00D  GRAD.:     1.057 HEAT: -76.72050
 CYCLE:   110 TIME:   0.008 TIME LEFT:  2.00D  GRAD.:     0.409 HEAT: -76.72125
 CYCLE:   111 TIME:   0.016 TIME LEFT:  2.00D  GRAD.:     0.273 HEAT: -76.72146
 CYCLE:   112 TIME:   0.008 TIME LEFT:  2.00D  GRAD.:     0.304 HEAT: -76.72159
 CYCLE:   113 TIME:   0.008 TIME LEFT:  2.00D  GRAD.:     0.303 HEAT: -76.72178
 CYCLE:   114 TIME:   0.008 TIME LEFT:  2.00D  GRAD.:     0.322 HEAT: -76.72192
 CYCLE:   115 TIME:   0.008 TIME LEFT:  2.00D  GRAD.:     0.316 HEAT: -76.72216
 CYCLE:   116 TIME:   0.016 TIME LEFT:  2.00D  GRAD.:     0.289 HEAT: -76.72231
 CYCLE:   117 TIME:   0.008 TIME LEFT:  2.00D  GRAD.:     0.271 HEAT: -76.72250
 CYCLE:   118 TIME:   0.008 TIME LEFT:  2.00D  GRAD.:     0.226 HEAT: -76.72258
 CYCLE:   119 TIME:   0.008 TIME LEFT:  2.00D  GRAD.:     0.200 HEAT: -76.72272
 CYCLE:   120 TIME:   0.008 TIME LEFT:  2.00D  GRAD.:     0.259 HEAT: -76.72285
 CYCLE:   121 TIME:   0.008 TIME LEFT:  2.00D  GRAD.:     0.233 HEAT: -76.72296
 CYCLE:   122 TIME:   0.008 TIME LEFT:  2.00D  GRAD.:     0.202 HEAT: -76.72305
 CYCLE:   123 TIME:   0.016 TIME LEFT:  2.00D  GRAD.:     0.204 HEAT: -76.72312
 CYCLE:   124 TIME:   0.008 TIME LEFT:  2.00D  GRAD.:     0.222 HEAT: -76.72320
 CYCLE:   125 TIME:   0.008 TIME LEFT:  2.00D  GRAD.:     0.236 HEAT: -76.72329
 CYCLE:   126 TIME:   0.016 TIME LEFT:  2.00D  GRAD.:     0.223 HEAT: -76.72339
 CYCLE:   127 TIME:   0.008 TIME LEFT:  2.00D  GRAD.:     0.193 HEAT: -76.72347
 CYCLE:   128 TIME:   0.008 TIME LEFT:  2.00D  GRAD.:     0.171 HEAT: -76.72354
 CYCLE:   129 TIME:   0.008 TIME LEFT:  2.00D  GRAD.:     0.164 HEAT: -76.72360
 CYCLE:   130 TIME:   0.016 TIME LEFT:  2.00D  GRAD.:     0.173 HEAT: -76.72363
 CYCLE:   131 TIME:   0.008 TIME LEFT:  2.00D  GRAD.:     0.179 HEAT: -76.72366
 CYCLE:   132 TIME:   0.008 TIME LEFT:  2.00D  GRAD.:     0.204 HEAT: -76.72370
 CYCLE:   133 TIME:   0.031 TIME LEFT:  2.00D  GRAD.:     0.205 HEAT: -76.72373
 CYCLE:   134 TIME:   0.016 TIME LEFT:  2.00D  GRAD.:     0.291 HEAT: -76.72387
 CYCLE:   135 TIME:   0.016 TIME LEFT:  2.00D  GRAD.:     0.235 HEAT: -76.72395
 CYCLE:   136 TIME:   0.008 TIME LEFT:  2.00D  GRAD.:     0.292 HEAT: -76.72425
 CYCLE:   137 TIME:   0.008 TIME LEFT:  2.00D  GRAD.:     0.272 HEAT: -76.72443
 CYCLE:   138 TIME:   0.008 TIME LEFT:  2.00D  GRAD.:     0.529 HEAT: -76.72529
 CYCLE:   139 TIME:   0.016 TIME LEFT:  2.00D  GRAD.:     0.377 HEAT: -76.72573
 CYCLE:   140 TIME:   0.008 TIME LEFT:  2.00D  GRAD.:     1.293 HEAT: -76.72343
 CYCLE:   141 TIME:   0.008 TIME LEFT:  2.00D  GRAD.:     0.331 HEAT: -76.72589
 CYCLE:   142 TIME:   0.016 TIME LEFT:  2.00D  GRAD.:     0.356 HEAT: -76.72621
 CYCLE:   143 TIME:   0.008 TIME LEFT:  2.00D  GRAD.:     0.328 HEAT: -76.72640
 CYCLE:   144 TIME:   0.008 TIME LEFT:  2.00D  GRAD.:     0.333 HEAT: -76.72670
 CYCLE:   145 TIME:   0.008 TIME LEFT:  2.00D  GRAD.:     0.233 HEAT: -76.72680
 CYCLE:   146 TIME:   0.008 TIME LEFT:  2.00D  GRAD.:     0.144 HEAT: -76.72689
 CYCLE:   147 TIME:   0.016 TIME LEFT:  2.00D  GRAD.:     0.071 HEAT: -76.72694
 CYCLE:   148 TIME:   0.008 TIME LEFT:  2.00D  GRAD.:     0.165 HEAT: -76.72692
 CYCLE:   149 TIME:   0.008 TIME LEFT:  2.00D  GRAD.:     0.050 HEAT: -76.72696
 CYCLE:   150 TIME:   0.008 TIME LEFT:  2.00D  GRAD.:     0.025 HEAT: -76.72696

     GRADIENT =  0.02451 IS LESS THAN CUTOFF =  0.05000



 -------------------------------------------------------------------------------
 AUX LARGE CHARGE=0 SINGLET  PM6  OPT PRECISE PRTXYZ
 CN339.pdb
 20


     GEOMETRY OPTIMISED USING EIGENVECTOR FOLLOWING (EF).     
     SCF FIELD WAS ACHIEVED                                   


                              PM6 CALCULATION
                                                       MOPAC2016 (Version: 20.225L)
                                                       Fri Aug 14 20:43:50 2020
                                                       No. of days remaining = 364




          FINAL HEAT OF FORMATION =        -76.72696 KCAL/MOL =    -321.02561 KJ/MOL


          TOTAL ENERGY            =      -1698.70687 EV
          ELECTRONIC ENERGY       =      -8082.94739 EV  POINT GROUP:     C1  
          CORE-CORE REPULSION     =       6384.24052 EV
          COSMO AREA              =        178.63 SQUARE ANGSTROMS
          COSMO VOLUME            =        175.93 CUBIC ANGSTROMS

          GRADIENT NORM           =          0.02451 = 0.00548 PER ATOM
          IONIZATION POTENTIAL    =          9.194250 EV
          HOMO LUMO ENERGIES (EV) =         -9.194  0.038
          NO. OF FILLED LEVELS    =         27
          MOLECULAR WEIGHT        =        138.1658

          MOLECULAR DIMENSIONS (Angstroms)

            Atom       Atom       Distance
            H    20    H    11     7.88791
            H    17    H    13     4.75384
            H    18    H    15     2.62334


          SCF CALCULATIONS        =        155
 
          WALL-CLOCK TIME         =          1.625 SECONDS
          COMPUTATION TIME        =          2.688 SECONDS




   ATOM   CHEMICAL          X               Y               Z
  NUMBER   SYMBOL      (ANGSTROMS)     (ANGSTROMS)     (ANGSTROMS)
 
     1       C          6.01041962  *  -7.14866030  *   0.08642694  *
     2       C          6.21366676  *  -8.50131229  *   0.39245791  *
     3       C          7.44479966  *  -9.14572030  *   0.19458028  *
     4       C          8.50528524  *  -8.40227552  *  -0.33142757  *
     5       C          8.32581121  *  -7.04200286  *  -0.64396355  *
     6       C          7.08923827  *  -6.42902291  *  -0.43573324  *
     7       C          9.84081421  *  -9.05320576  *  -0.55107152  *
     8       O          5.21893389  *  -9.29566452  *   0.91114020  *
     9       C         10.75349741  *  -8.83607809  *   0.66379843  *
    10       O         12.06989928  *  -9.33116237  *   0.39295106  *
    11       H          5.05092710  *  -6.67173720  *   0.24676658  *
    12       H          7.54625729  * -10.19706703  *   0.44983441  *
    13       H          9.15417866  *  -6.46690671  *  -1.05057765  *
    14       H          6.95970892  *  -5.37450818  *  -0.68277301  *
    15       H          9.72541210  * -10.13624109  *  -0.75653427  *
    16       H         10.33706897  *  -8.64417729  *  -1.45784888  *
    17       H          4.37174148  *  -8.80183948  *   1.03236553  *
    18       H         10.93285658  *  -7.76144130  *   0.86205076  *
    19       H         10.35548283  *  -9.32182673  *   1.57185746  *
    20       H         12.05623248  * -10.29730013  *   0.25371781  *

                             CARTESIAN COORDINATES

   1    C        6.010419615    -7.148660302     0.086426939
   2    C        6.213666758    -8.501312286     0.392457908
   3    C        7.444799660    -9.145720298     0.194580276
   4    C        8.505285244    -8.402275522    -0.331427573
   5    C        8.325811210    -7.042002862    -0.643963555
   6    C        7.089238266    -6.429022915    -0.435733235
   7    C        9.840814211    -9.053205760    -0.551071522
   8    O        5.218933894    -9.295664523     0.911140200
   9    C       10.753497407    -8.836078094     0.663798433
  10    O       12.069899283    -9.331162371     0.392951065
  11    H        5.050927097    -6.671737202     0.246766582
  12    H        7.546257290   -10.197067034     0.449834410
  13    H        9.154178659    -6.466906712    -1.050577648
  14    H        6.959708920    -5.374508184    -0.682773012
  15    H        9.725412096   -10.136241089    -0.756534268
  16    H       10.337068968    -8.644177289    -1.457848877
  17    H        4.371741476    -8.801839475     1.032365533
  18    H       10.932856579    -7.761441301     0.862050761
  19    H       10.355482831    -9.321826728     1.571857463
  20    H       12.056232481   -10.297300134     0.253717805


           Empirical Formula: C8 H10 O2  =    20 atoms



      MOLECULAR POINT GROUP   :   C1  


                  EIGENVALUES  
 -31.06520 -30.24118 -29.85345 -27.60967 -26.04466 -24.93500 -22.78111 -21.56142
 -21.23170 -18.23803 -17.95567 -17.10634 -16.32474 -15.82978 -14.98696 -14.82742
 -14.55015 -14.10354 -13.92752 -13.28582 -12.76421 -12.27065 -12.08866 -11.91004
 -10.74781  -9.85231  -9.19425   0.03840   0.24413   2.17635   2.34617   2.55298
   3.55536   3.76531   4.00320   4.32064   4.52037   4.78604   4.83425   4.99810
   5.25718   5.35589   5.37185   5.49136   5.67468   5.85615   5.92596   6.10263
   6.18231   6.25576


              NET ATOMIC CHARGES AND DIPOLE CONTRIBUTIONS

  ATOM NO.   TYPE          CHARGE      No. of ELECS.   s-Pop       p-Pop       
    1          C          -0.405543        4.4055     1.10779     3.29775
    2          C           0.375754        3.6242     1.07947     2.54477
    3          C          -0.369022        4.3690     1.10745     3.26157
    4          C           0.197624        3.8024     1.08646     2.71592
    5          C          -0.325642        4.3256     1.10780     3.21785
    6          C           0.022886        3.9771     1.10084     2.87627
    7          C          -0.397075        4.3971     1.09975     3.29732
    8          O          -0.475276        6.4753     1.80632     4.66896
    9          C           0.033461        3.9665     1.09696     2.86957
   10          O          -0.547996        6.5480     1.81834     4.72965
   11          H           0.170025        0.8300     0.82997
   12          H           0.186823        0.8132     0.81318
   13          H           0.166895        0.8331     0.83310
   14          H           0.136523        0.8635     0.86348
   15          H           0.161190        0.8388     0.83881
   16          H           0.176558        0.8234     0.82344
   17          H           0.323363        0.6766     0.67664
   18          H           0.147979        0.8520     0.85202
   19          H           0.116244        0.8838     0.88376
   20          H           0.305228        0.6948     0.69477
 DIPOLE           X         Y         Z       TOTAL
 POINT-CHG.    -1.470     0.778    -0.158     1.671
 HYBRID        -0.478    -0.459    -0.018     0.663
 SUM           -1.948     0.318    -0.176     1.982


          ATOMIC ORBITAL ELECTRON POPULATIONS

     Atom    s        px        py        pz   
    1  C   1.10779   1.09677   1.02735   1.17363
    2  C   1.07947   0.83261   0.86777   0.84440
    3  C   1.10745   0.99902   1.10978   1.15277
    4  C   1.08646   0.91147   0.92820   0.87626
    5  C   1.10780   1.05977   1.03007   1.12801
    6  C   1.10084   0.93990   1.03439   0.90198
    7  C   1.09975   1.03674   1.15466   1.10592
    8  O   1.80632   1.34098   1.51685   1.81112
    9  C   1.09696   0.79485   1.08100   0.99373
   10  O   1.81834   1.39193   1.39039   1.94734
   11  H   0.82997
   12  H   0.81318
   13  H   0.83310
   14  H   0.86348
   15  H   0.83881
   16  H   0.82344
   17  H   0.67664
   18  H   0.85202
   19  H   0.88376
   20  H   0.69477

 **********************
 *                    *
 * JOB ENDED NORMALLY *
 *                    *
 **********************



 TOTAL JOB TIME:             1.65 SECONDS

 == MOPAC DONE ==
