 *******************************************************************************
 ** Site#: 35412        For non-commercial use only    Version 20.225L 64BITS **
 *******************************************************************************
 ** Cite this program as: MOPAC2016, Version: 20.225L, James J. P. Stewart,   **
 ** Stewart Computational Chemistry, web: HTTP://OpenMOPAC.net. Days left: 364**
 *******************************************************************************
 **                                                                           **
 **                                MOPAC2016                                  **
 **                                                                           **
 *******************************************************************************

                              PM6 CALCULATION RESULTS

 *******************************************************************************
 *  CALCULATION DONE:                                Fri Aug 14 20:43:44 2020  *
 *  PM6        - The PM6 Hamiltonian to be used
 *  SINGLET    - SPIN STATE DEFINED AS A SINGLET
 *  OPT        - OPTIMIZE COORDINATES OF ALL ATOMS
 *
 *
 *
 *                 CHARGE ON SYSTEM = 0
 *
 *
 *
 *  PRECISE    - CRITERIA TO BE INCREASED BY 100 TIMES
 *  T=         - A TIME OF 172800.0 SECONDS REQUESTED
 *  DUMP=N     - RESTART FILE WRITTEN EVERY 7200.0 SECONDS REQUESTED
 *  AUX        - OUTPUT AUXILIARY INFORMATION
 *  PRTXYZ     - PRINT CARTESIAN COORDINATES
 *  LARGE      - EXPANDED OUTPUT TO BE PRINTED
 *******************************************************************************
 AUX LARGE CHARGE=0 SINGLET  PM6  OPT PRECISE PRTXYZ
 CN338.pdb
 32
   ATOM   CHEMICAL          X               Y               Z
  NUMBER   SYMBOL      (ANGSTROMS)     (ANGSTROMS)     (ANGSTROMS)
 
     1       C          4.14600000  *  -7.54700000  *   0.01000000  *
     2       C          4.21100000  *  -8.93300000  *   0.17700000  *
     3       C          5.44600000  *  -9.55800000  *   0.22400000  *
     4       C          6.59800000  *  -8.79900000  *   0.10600000  *
     5       C          6.54100000  *  -7.42900000  *  -0.06200000  *
     6       C          5.31100000  *  -6.80200000  *  -0.10900000  *
     7       C          7.85800000  *  -9.40900000  *   0.15300000  *
     8       O          8.96200000  *  -8.67400000  *   0.04000000  *
     9       C          8.93900000  *  -7.32900000  *  -0.14100000  *
    10       C          7.78000000  *  -6.67600000  *  -0.19300000  *
    11       O          7.97700000  * -10.62200000  *   0.30200000  *
    12       C         10.24700000  *  -6.61500000  *  -0.29400000  *
    13       C         11.40600000  *  -7.57900000  *   0.05500000  *
    14       O          2.96300000  *  -6.83900000  *  -0.04800000  *
    15       O          5.54100000  * -10.92700000  *   0.38400000  *
    16       C         12.75500000  *  -6.85200000  *  -0.13000000  *
    17       O         11.35000000  *  -8.73300000  *  -0.80500000  *
    18       C          1.74900000  *  -7.60900000  *   0.07500000  *
    19       H          3.34500000  *  -9.52200000  *   0.26900000  *
    20       H          5.26000000  *  -5.75700000  *  -0.23800000  *
    21       H          7.75500000  *  -5.63000000  *  -0.33600000  *
    22       H         10.33900000  *  -6.27600000  *  -1.33600000  *
    23       H         10.25200000  *  -5.71900000  *   0.34100000  *
    24       H         11.30300000  *  -7.90500000  *   1.09900000  *
    25       H          4.65300000  * -11.33600000  *   0.45400000  *
    26       H         13.57800000  *  -7.53700000  *   0.12300000  *
    27       H         12.79200000  *  -5.97500000  *   0.53300000  *
    28       H         12.85800000  *  -6.52600000  *  -1.17600000  *
    29       H         10.45200000  *  -9.21500000  *  -0.65700000  *
    30       H          0.87900000  *  -6.93000000  *   0.01300000  *
    31       H          1.73600000  *  -8.12800000  *   1.04500000  *
    32       H          1.69300000  *  -8.34600000  *  -0.74000000  *
 


          CARTESIAN COORDINATES 

    NO.       ATOM           X           Y           Z

     1         C          4.1460     -7.5470      0.0100
     2         C          4.2110     -8.9330      0.1770
     3         C          5.4460     -9.5580      0.2240
     4         C          6.5980     -8.7990      0.1060
     5         C          6.5410     -7.4290     -0.0620
     6         C          5.3110     -6.8020     -0.1090
     7         C          7.8580     -9.4090      0.1530
     8         O          8.9620     -8.6740      0.0400
     9         C          8.9390     -7.3290     -0.1410
    10         C          7.7800     -6.6760     -0.1930
    11         O          7.9770    -10.6220      0.3020
    12         C         10.2470     -6.6150     -0.2940
    13         C         11.4060     -7.5790      0.0550
    14         O          2.9630     -6.8390     -0.0480
    15         O          5.5410    -10.9270      0.3840
    16         C         12.7550     -6.8520     -0.1300
    17         O         11.3500     -8.7330     -0.8050
    18         C          1.7490     -7.6090      0.0750
    19         H          3.3450     -9.5220      0.2690
    20         H          5.2600     -5.7570     -0.2380
    21         H          7.7550     -5.6300     -0.3360
    22         H         10.3390     -6.2760     -1.3360
    23         H         10.2520     -5.7190      0.3410
    24         H         11.3030     -7.9050      1.0990
    25         H          4.6530    -11.3360      0.4540
    26         H         13.5780     -7.5370      0.1230
    27         H         12.7920     -5.9750      0.5330
    28         H         12.8580     -6.5260     -1.1760
    29         H         10.4520     -9.2150     -0.6570
    30         H          0.8790     -6.9300      0.0130
    31         H          1.7360     -8.1280      1.0450
    32         H          1.6930     -8.3460     -0.7400

 General Reference for PM6:
 "Optimization of Parameters for Semiempirical Methods V: Modification of NDDO Approximations
 and Application to 70 Elements", J. J. P. Stewart, J. Mol. Mod., 13, 1173-1213 (2007)
 URL: https://link.springer.com/article/10.1007/s00894-007-0233-4

           Empirical Formula: C13 H14 O5  =    32 atoms



      MOLECULAR POINT GROUP   :   C1  


 SINGLET STATE CALCULATION


      RHF CALCULATION, NO. OF DOUBLY OCCUPIED LEVELS = 48


          Geometry optimization using EF

          DIAGONAL MATRIX USED AS START HESSIAN

 CYCLE:     1 TIME:   0.039 TIME LEFT:  2.00D  GRAD.:   189.869 HEAT: -171.2369
 CYCLE:     2 TIME:   0.047 TIME LEFT:  2.00D  GRAD.:   158.105 HEAT: -179.1462
 CYCLE:     3 TIME:   0.039 TIME LEFT:  2.00D  GRAD.:   168.547 HEAT: -181.2945
 CYCLE:     4 TIME:   0.031 TIME LEFT:  2.00D  GRAD.:   130.895 HEAT: -184.1862
 CYCLE:     5 TIME:   0.039 TIME LEFT:  2.00D  GRAD.:    57.177 HEAT: -188.5078
 CYCLE:     6 TIME:   0.078 TIME LEFT:  2.00D  GRAD.:    49.873 HEAT: -189.3484
 CYCLE:     7 TIME:   0.023 TIME LEFT:  2.00D  GRAD.:    56.423 HEAT: -190.1046
 CYCLE:     8 TIME:   0.016 TIME LEFT:  2.00D  GRAD.:    69.199 HEAT: -191.0530
 CYCLE:     9 TIME:   0.023 TIME LEFT:  2.00D  GRAD.:    60.484 HEAT: -191.4218
 CYCLE:    10 TIME:   0.039 TIME LEFT:  2.00D  GRAD.:    39.283 HEAT: -192.3184
 CYCLE:    11 TIME:   0.039 TIME LEFT:  2.00D  GRAD.:    22.451 HEAT: -192.6794
 CYCLE:    12 TIME:   0.023 TIME LEFT:  2.00D  GRAD.:    28.645 HEAT: -192.8889
 CYCLE:    13 TIME:   0.023 TIME LEFT:  2.00D  GRAD.:    24.438 HEAT: -193.2015
 CYCLE:    14 TIME:   0.016 TIME LEFT:  2.00D  GRAD.:    33.926 HEAT: -193.2750
 CYCLE:    15 TIME:   0.023 TIME LEFT:  2.00D  GRAD.:    35.249 HEAT: -193.4620
 CYCLE:    16 TIME:   0.039 TIME LEFT:  2.00D  GRAD.:    18.706 HEAT: -193.7556
 CYCLE:    17 TIME:   0.016 TIME LEFT:  2.00D  GRAD.:    19.685 HEAT: -193.8462
 CYCLE:    18 TIME:   0.031 TIME LEFT:  2.00D  GRAD.:    15.475 HEAT: -193.9953
 CYCLE:    19 TIME:   0.023 TIME LEFT:  2.00D  GRAD.:    19.554 HEAT: -194.0700
 CYCLE:    20 TIME:   0.016 TIME LEFT:  2.00D  GRAD.:    19.343 HEAT: -194.1277
 CYCLE:    21 TIME:   0.023 TIME LEFT:  2.00D  GRAD.:    22.398 HEAT: -194.1823
 CYCLE:    22 TIME:   0.023 TIME LEFT:  2.00D  GRAD.:    18.426 HEAT: -194.2477
 CYCLE:    23 TIME:   0.016 TIME LEFT:  2.00D  GRAD.:    16.336 HEAT: -194.2837
 CYCLE:    24 TIME:   0.023 TIME LEFT:  2.00D  GRAD.:    20.399 HEAT: -194.2842
 CYCLE:    25 TIME:   0.016 TIME LEFT:  2.00D  GRAD.:     9.533 HEAT: -194.3869
 CYCLE:    26 TIME:   0.023 TIME LEFT:  2.00D  GRAD.:     8.661 HEAT: -194.4106
 CYCLE:    27 TIME:   0.016 TIME LEFT:  2.00D  GRAD.:     5.888 HEAT: -194.4413
 CYCLE:    28 TIME:   0.023 TIME LEFT:  2.00D  GRAD.:     6.200 HEAT: -194.4644
 CYCLE:    29 TIME:   0.016 TIME LEFT:  2.00D  GRAD.:     4.828 HEAT: -194.4953
 CYCLE:    30 TIME:   0.016 TIME LEFT:  2.00D  GRAD.:     5.442 HEAT: -194.5175
 CYCLE:    31 TIME:   0.023 TIME LEFT:  2.00D  GRAD.:     4.107 HEAT: -194.5308
 CYCLE:    32 TIME:   0.023 TIME LEFT:  2.00D  GRAD.:     3.616 HEAT: -194.5418
 CYCLE:    33 TIME:   0.016 TIME LEFT:  2.00D  GRAD.:     3.099 HEAT: -194.5533
 CYCLE:    34 TIME:   0.023 TIME LEFT:  2.00D  GRAD.:     2.554 HEAT: -194.5624
 CYCLE:    35 TIME:   0.023 TIME LEFT:  2.00D  GRAD.:     2.225 HEAT: -194.5696
 CYCLE:    36 TIME:   0.023 TIME LEFT:  2.00D  GRAD.:     3.068 HEAT: -194.5768
 CYCLE:    37 TIME:   0.023 TIME LEFT:  2.00D  GRAD.:     2.518 HEAT: -194.5890
 CYCLE:    38 TIME:   0.023 TIME LEFT:  2.00D  GRAD.:     2.518 HEAT: -194.6003
 CYCLE:    39 TIME:   0.023 TIME LEFT:  2.00D  GRAD.:     2.886 HEAT: -194.6070
 CYCLE:    40 TIME:   0.031 TIME LEFT:  2.00D  GRAD.:     2.255 HEAT: -194.6137
 CYCLE:    41 TIME:   0.016 TIME LEFT:  2.00D  GRAD.:     2.193 HEAT: -194.6193
 CYCLE:    42 TIME:   0.023 TIME LEFT:  2.00D  GRAD.:     2.050 HEAT: -194.6233
 CYCLE:    43 TIME:   0.023 TIME LEFT:  2.00D  GRAD.:     1.666 HEAT: -194.6285
 CYCLE:    44 TIME:   0.023 TIME LEFT:  2.00D  GRAD.:     2.564 HEAT: -194.6368
 CYCLE:    45 TIME:   0.031 TIME LEFT:  2.00D  GRAD.:     2.358 HEAT: -194.6409
 CYCLE:    46 TIME:   0.023 TIME LEFT:  2.00D  GRAD.:     1.900 HEAT: -194.6460
 CYCLE:    47 TIME:   0.023 TIME LEFT:  2.00D  GRAD.:     2.024 HEAT: -194.6570
 CYCLE:    48 TIME:   0.023 TIME LEFT:  2.00D  GRAD.:     2.456 HEAT: -194.6660
 CYCLE:    49 TIME:   0.031 TIME LEFT:  2.00D  GRAD.:     2.082 HEAT: -194.6740
 CYCLE:    50 TIME:   0.039 TIME LEFT:  2.00D  GRAD.:     1.863 HEAT: -194.6820
 CYCLE:    51 TIME:   0.023 TIME LEFT:  2.00D  GRAD.:     2.274 HEAT: -194.6887
 CYCLE:    52 TIME:   0.016 TIME LEFT:  2.00D  GRAD.:     2.022 HEAT: -194.6941
 CYCLE:    53 TIME:   0.023 TIME LEFT:  2.00D  GRAD.:     1.738 HEAT: -194.6999
 CYCLE:    54 TIME:   0.016 TIME LEFT:  2.00D  GRAD.:     1.569 HEAT: -194.7055
 CYCLE:    55 TIME:   0.023 TIME LEFT:  2.00D  GRAD.:     1.406 HEAT: -194.7092
 CYCLE:    56 TIME:   0.016 TIME LEFT:  2.00D  GRAD.:     1.398 HEAT: -194.7132
 CYCLE:    57 TIME:   0.023 TIME LEFT:  2.00D  GRAD.:     1.589 HEAT: -194.7180
 CYCLE:    58 TIME:   0.023 TIME LEFT:  2.00D  GRAD.:     1.809 HEAT: -194.7245
 CYCLE:    59 TIME:   0.023 TIME LEFT:  2.00D  GRAD.:     1.776 HEAT: -194.7306
 CYCLE:    60 TIME:   0.016 TIME LEFT:  2.00D  GRAD.:     1.415 HEAT: -194.7356
 CYCLE:    61 TIME:   0.023 TIME LEFT:  2.00D  GRAD.:     1.200 HEAT: -194.7392
 CYCLE:    62 TIME:   0.023 TIME LEFT:  2.00D  GRAD.:     1.052 HEAT: -194.7416
 CYCLE:    63 TIME:   0.016 TIME LEFT:  2.00D  GRAD.:     0.816 HEAT: -194.7435
 CYCLE:    64 TIME:   0.023 TIME LEFT:  2.00D  GRAD.:     0.786 HEAT: -194.7453
 CYCLE:    65 TIME:   0.016 TIME LEFT:  2.00D  GRAD.:     0.932 HEAT: -194.7472
 CYCLE:    66 TIME:   0.023 TIME LEFT:  2.00D  GRAD.:     0.954 HEAT: -194.7494
 CYCLE:    67 TIME:   0.016 TIME LEFT:  2.00D  GRAD.:     1.021 HEAT: -194.7515
 CYCLE:    68 TIME:   0.023 TIME LEFT:  2.00D  GRAD.:     0.918 HEAT: -194.7536
 CYCLE:    69 TIME:   0.023 TIME LEFT:  2.00D  GRAD.:     1.016 HEAT: -194.7556
 CYCLE:    70 TIME:   0.023 TIME LEFT:  2.00D  GRAD.:     1.098 HEAT: -194.7577
 CYCLE:    71 TIME:   0.023 TIME LEFT:  2.00D  GRAD.:     1.103 HEAT: -194.7602
 CYCLE:    72 TIME:   0.016 TIME LEFT:  2.00D  GRAD.:     1.174 HEAT: -194.7635
 CYCLE:    73 TIME:   0.023 TIME LEFT:  2.00D  GRAD.:     1.278 HEAT: -194.7673
 CYCLE:    74 TIME:   0.023 TIME LEFT:  2.00D  GRAD.:     1.379 HEAT: -194.7714
 CYCLE:    75 TIME:   0.023 TIME LEFT:  2.00D  GRAD.:     1.393 HEAT: -194.7760
 CYCLE:    76 TIME:   0.023 TIME LEFT:  2.00D  GRAD.:     1.416 HEAT: -194.7806
 CYCLE:    77 TIME:   0.023 TIME LEFT:  2.00D  GRAD.:     1.449 HEAT: -194.7855
 CYCLE:    78 TIME:   0.023 TIME LEFT:  2.00D  GRAD.:     1.554 HEAT: -194.7906
 CYCLE:    79 TIME:   0.016 TIME LEFT:  2.00D  GRAD.:     1.821 HEAT: -194.7951
 CYCLE:    80 TIME:   0.023 TIME LEFT:  2.00D  GRAD.:     1.536 HEAT: -194.8002
 CYCLE:    81 TIME:   0.016 TIME LEFT:  2.00D  GRAD.:     1.244 HEAT: -194.8045
 CYCLE:    82 TIME:   0.023 TIME LEFT:  2.00D  GRAD.:     1.022 HEAT: -194.8085
 CYCLE:    83 TIME:   0.023 TIME LEFT:  2.00D  GRAD.:     0.921 HEAT: -194.8106
 CYCLE:    84 TIME:   0.016 TIME LEFT:  2.00D  GRAD.:     0.840 HEAT: -194.8132
 CYCLE:    85 TIME:   0.023 TIME LEFT:  2.00D  GRAD.:     0.733 HEAT: -194.8147
 CYCLE:    86 TIME:   0.023 TIME LEFT:  2.00D  GRAD.:     0.604 HEAT: -194.8159
 CYCLE:    87 TIME:   0.023 TIME LEFT:  2.00D  GRAD.:     0.609 HEAT: -194.8167
 CYCLE:    88 TIME:   0.023 TIME LEFT:  2.00D  GRAD.:     0.597 HEAT: -194.8175
 CYCLE:    89 TIME:   0.023 TIME LEFT:  2.00D  GRAD.:     0.727 HEAT: -194.8185
 CYCLE:    90 TIME:   0.023 TIME LEFT:  2.00D  GRAD.:     0.685 HEAT: -194.8196
 CYCLE:    91 TIME:   0.016 TIME LEFT:  2.00D  GRAD.:     0.743 HEAT: -194.8209
 CYCLE:    92 TIME:   0.016 TIME LEFT:  2.00D  GRAD.:     0.837 HEAT: -194.8223
 CYCLE:    93 TIME:   0.023 TIME LEFT:  2.00D  GRAD.:     0.969 HEAT: -194.8242
 CYCLE:    94 TIME:   0.023 TIME LEFT:  2.00D  GRAD.:     1.014 HEAT: -194.8263
 CYCLE:    95 TIME:   0.023 TIME LEFT:  2.00D  GRAD.:     0.974 HEAT: -194.8286
 CYCLE:    96 TIME:   0.031 TIME LEFT:  2.00D  GRAD.:     0.990 HEAT: -194.8310
 CYCLE:    97 TIME:   0.023 TIME LEFT:  2.00D  GRAD.:     1.053 HEAT: -194.8336
 CYCLE:    98 TIME:   0.055 TIME LEFT:  2.00D  GRAD.:     1.105 HEAT: -194.8369
 CYCLE:    99 TIME:   0.023 TIME LEFT:  2.00D  GRAD.:     1.154 HEAT: -194.8417
 CYCLE:   100 TIME:   0.016 TIME LEFT:  2.00D  GRAD.:     0.962 HEAT: -194.8448
 CYCLE:   101 TIME:   0.023 TIME LEFT:  2.00D  GRAD.:     1.993 HEAT: -194.8470
 CYCLE:   102 TIME:   0.023 TIME LEFT:  2.00D  GRAD.:     1.396 HEAT: -194.8497
 CYCLE:   103 TIME:   0.023 TIME LEFT:  2.00D  GRAD.:     0.711 HEAT: -194.8517
 CYCLE:   104 TIME:   0.023 TIME LEFT:  2.00D  GRAD.:     0.887 HEAT: -194.8535
 CYCLE:   105 TIME:   0.023 TIME LEFT:  2.00D  GRAD.:     1.127 HEAT: -194.8556
 CYCLE:   106 TIME:   0.023 TIME LEFT:  2.00D  GRAD.:     1.085 HEAT: -194.8588
 CYCLE:   107 TIME:   0.023 TIME LEFT:  2.00D  GRAD.:     0.992 HEAT: -194.8620
 CYCLE:   108 TIME:   0.023 TIME LEFT:  2.00D  GRAD.:     0.798 HEAT: -194.8638
 CYCLE:   109 TIME:   0.016 TIME LEFT:  2.00D  GRAD.:     1.005 HEAT: -194.8647
 CYCLE:   110 TIME:   0.023 TIME LEFT:  2.00D  GRAD.:     0.925 HEAT: -194.8662
 CYCLE:   111 TIME:   0.016 TIME LEFT:  2.00D  GRAD.:     0.808 HEAT: -194.8676
 CYCLE:   112 TIME:   0.031 TIME LEFT:  2.00D  GRAD.:     0.711 HEAT: -194.8699
 CYCLE:   113 TIME:   0.023 TIME LEFT:  2.00D  GRAD.:     0.607 HEAT: -194.8707
 CYCLE:   114 TIME:   0.023 TIME LEFT:  2.00D  GRAD.:     0.498 HEAT: -194.8719
 CYCLE:   115 TIME:   0.023 TIME LEFT:  2.00D  GRAD.:     0.342 HEAT: -194.8722
 CYCLE:   116 TIME:   0.023 TIME LEFT:  2.00D  GRAD.:     0.293 HEAT: -194.8727
 CYCLE:   117 TIME:   0.016 TIME LEFT:  2.00D  GRAD.:     0.361 HEAT: -194.8729
 CYCLE:   118 TIME:   0.023 TIME LEFT:  2.00D  GRAD.:     0.657 HEAT: -194.8735
 CYCLE:   119 TIME:   0.023 TIME LEFT:  2.00D  GRAD.:     0.545 HEAT: -194.8740
 CYCLE:   120 TIME:   0.016 TIME LEFT:  2.00D  GRAD.:     0.409 HEAT: -194.8746
 CYCLE:   121 TIME:   0.031 TIME LEFT:  2.00D  GRAD.:     0.410 HEAT: -194.8752
 CYCLE:   122 TIME:   0.023 TIME LEFT:  2.00D  GRAD.:     0.435 HEAT: -194.8756
 CYCLE:   123 TIME:   0.023 TIME LEFT:  2.00D  GRAD.:     0.498 HEAT: -194.8763
 CYCLE:   124 TIME:   0.016 TIME LEFT:  2.00D  GRAD.:     0.521 HEAT: -194.8771
 CYCLE:   125 TIME:   0.023 TIME LEFT:  2.00D  GRAD.:     0.592 HEAT: -194.8781
 CYCLE:   126 TIME:   0.023 TIME LEFT:  2.00D  GRAD.:     0.529 HEAT: -194.8790
 CYCLE:   127 TIME:   0.016 TIME LEFT:  2.00D  GRAD.:     0.353 HEAT: -194.8797
 CYCLE:   128 TIME:   0.023 TIME LEFT:  2.00D  GRAD.:     0.261 HEAT: -194.8799
 CYCLE:   129 TIME:   0.016 TIME LEFT:  2.00D  GRAD.:     0.209 HEAT: -194.8802
 CYCLE:   130 TIME:   0.016 TIME LEFT:  2.00D  GRAD.:     0.237 HEAT: -194.8802
 CYCLE:   131 TIME:   0.023 TIME LEFT:  2.00D  GRAD.:     0.210 HEAT: -194.8804
 CYCLE:   132 TIME:   0.031 TIME LEFT:  2.00D  GRAD.:     0.157 HEAT: -194.8804
 CYCLE:   133 TIME:   0.031 TIME LEFT:  2.00D  GRAD.:     0.134 HEAT: -194.8805
 CYCLE:   134 TIME:   0.016 TIME LEFT:  2.00D  GRAD.:     0.133 HEAT: -194.8806
 CYCLE:   135 TIME:   0.023 TIME LEFT:  2.00D  GRAD.:     0.137 HEAT: -194.8807
 CYCLE:   136 TIME:   0.023 TIME LEFT:  2.00D  GRAD.:     0.145 HEAT: -194.8807
 CYCLE:   137 TIME:   0.023 TIME LEFT:  2.00D  GRAD.:     0.169 HEAT: -194.8808
 CYCLE:   138 TIME:   0.016 TIME LEFT:  2.00D  GRAD.:     0.170 HEAT: -194.8809
 CYCLE:   139 TIME:   0.023 TIME LEFT:  2.00D  GRAD.:     0.148 HEAT: -194.8810
 CYCLE:   140 TIME:   0.023 TIME LEFT:  2.00D  GRAD.:     0.077 HEAT: -194.8810
 CYCLE:   141 TIME:   0.023 TIME LEFT:  2.00D  GRAD.:     0.047 HEAT: -194.8810

     GRADIENT =  0.04713 IS LESS THAN CUTOFF =  0.05000



 -------------------------------------------------------------------------------
 AUX LARGE CHARGE=0 SINGLET  PM6  OPT PRECISE PRTXYZ
 CN338.pdb
 32


     GEOMETRY OPTIMISED USING EIGENVECTOR FOLLOWING (EF).     
     SCF FIELD WAS ACHIEVED                                   


                              PM6 CALCULATION
                                                       MOPAC2016 (Version: 20.225L)
                                                       Fri Aug 14 20:43:48 2020
                                                       No. of days remaining = 364




          FINAL HEAT OF FORMATION =       -194.88104 KCAL/MOL =    -815.38228 KJ/MOL


          TOTAL ENERGY            =      -3240.04600 EV
          ELECTRONIC ENERGY       =     -20108.92388 EV  POINT GROUP:     C1  
          CORE-CORE REPULSION     =      16868.87787 EV
          COSMO AREA              =        270.60 SQUARE ANGSTROMS
          COSMO VOLUME            =        288.66 CUBIC ANGSTROMS

          GRADIENT NORM           =          0.04713 = 0.00833 PER ATOM
          IONIZATION POTENTIAL    =          9.283722 EV
          HOMO LUMO ENERGIES (EV) =         -9.284 -0.670
          NO. OF FILLED LEVELS    =         48
          MOLECULAR WEIGHT        =        250.2506

          MOLECULAR DIMENSIONS (Angstroms)

            Atom       Atom       Distance
            H    30    H    26    12.50717
            H    25    H    27     6.08130
            H    22    H    31     3.27074


          SCF CALCULATIONS        =        148
 
          WALL-CLOCK TIME         =          3.414 SECONDS
          COMPUTATION TIME        =          6.172 SECONDS




   ATOM   CHEMICAL          X               Y               Z
  NUMBER   SYMBOL      (ANGSTROMS)     (ANGSTROMS)     (ANGSTROMS)
 
     1       C          4.09233112  *  -7.55860559  *   0.08996084  *
     2       C          4.11047448  *  -8.95510162  *   0.25600990  *
     3       C          5.35530401  *  -9.58727356  *   0.21304217  *
     4       C          6.57177060  *  -8.88460474  *   0.01262633  *
     5       C          6.50154030  *  -7.46376786  *  -0.15162403  *
     6       C          5.26519978  *  -6.81212050  *  -0.11153191  *
     7       C          7.83229227  *  -9.57918490  *  -0.02450849  *
     8       O          9.00953467  *  -8.73666271  *  -0.24255271  *
     9       C          8.92119531  *  -7.38711693  *  -0.39684080  *
    10       C          7.72972664  *  -6.73803253  *  -0.35587377  *
    11       O          8.16808869  * -10.72286365  *   0.08466812  *
    12       C         10.26462383  *  -6.78260019  *  -0.62355645  *
    13       C         11.39082542  *  -7.47457216  *   0.18443284  *
    14       O          2.96810937  *  -6.78760762  *   0.10491806  *
    15       O          5.47146175  * -10.93225845  *   0.36387933  *
    16       C         12.67083224  *  -6.65093218  *   0.19734323  *
    17       O         11.75629118  *  -8.69974048  *  -0.46531287  *
    18       C          1.68271504  *  -7.43208391  *   0.30301202  *
    19       H          3.20345396  *  -9.52108698  *   0.41052875  *
    20       H          5.19658086  *  -5.73365959  *  -0.23478723  *
    21       H          7.67210307  *  -5.65841915  *  -0.47731357  *
    22       H         10.51918460  *  -6.85998873  *  -1.70842422  *
    23       H         10.24569227  *  -5.69621839  *  -0.40073953  *
    24       H         11.03934992  *  -7.71293182  *   1.21377135  *
    25       H          4.59645509  * -11.38500360  *   0.50095628  *
    26       H         13.48130512  *  -7.22363432  *   0.67307005  *
    27       H         12.55409625  *  -5.70976042  *   0.74082344  *
    28       H         13.01742756  *  -6.42844062  *  -0.82029974  *
    29       H         10.99290364  *  -9.33057096  *  -0.46779724  *
    30       H          0.99758496  *  -6.57371867  *   0.26839345  *
    31       H          1.65117934  *  -7.92044291  *   1.28108719  *
    32       H          1.47982886  *  -8.12952993  *  -0.51466874  *

                             CARTESIAN COORDINATES

   1    C        4.092331122    -7.558605590     0.089960843
   2    C        4.110474485    -8.955101619     0.256009905
   3    C        5.355304007    -9.587273556     0.213042166
   4    C        6.571770597    -8.884604737     0.012626328
   5    C        6.501540299    -7.463767863    -0.151624026
   6    C        5.265199776    -6.812120498    -0.111531914
   7    C        7.832292272    -9.579184898    -0.024508493
   8    O        9.009534669    -8.736662708    -0.242552714
   9    C        8.921195311    -7.387116931    -0.396840800
  10    C        7.729726641    -6.738032526    -0.355873770
  11    O        8.168088694   -10.722863654     0.084668124
  12    C       10.264623831    -6.782600191    -0.623556447
  13    C       11.390825421    -7.474572162     0.184432842
  14    O        2.968109375    -6.787607622     0.104918056
  15    O        5.471461753   -10.932258454     0.363879331
  16    C       12.670832239    -6.650932176     0.197343229
  17    O       11.756291182    -8.699740478    -0.465312871
  18    C        1.682715037    -7.432083909     0.303012022
  19    H        3.203453964    -9.521086976     0.410528755
  20    H        5.196580863    -5.733659589    -0.234787230
  21    H        7.672103068    -5.658419154    -0.477313570
  22    H       10.519184604    -6.859988728    -1.708424221
  23    H       10.245692274    -5.696218392    -0.400739535
  24    H       11.039349916    -7.712931822     1.213771354
  25    H        4.596455087   -11.385003601     0.500956280
  26    H       13.481305117    -7.223634321     0.673070051
  27    H       12.554096251    -5.709760422     0.740823438
  28    H       13.017427559    -6.428440618    -0.820299742
  29    H       10.992903641    -9.330570959    -0.467797236
  30    H        0.997584961    -6.573718671     0.268393451
  31    H        1.651179345    -7.920442908     1.281087187
  32    H        1.479828864    -8.129529932    -0.514668744


           Empirical Formula: C13 H14 O5  =    32 atoms



      MOLECULAR POINT GROUP   :   C1  


                  EIGENVALUES  
 -32.47975 -31.82800 -31.49229 -31.45824 -30.31652 -29.77968 -28.09355 -27.50274
 -27.08386 -26.48214 -25.79934 -24.29548 -23.47501 -22.42758 -21.75399 -20.92596
 -19.62561 -19.09894 -18.34808 -18.15374 -17.61931 -16.88741 -16.79162 -16.45161
 -16.22998 -15.90102 -15.37489 -15.22528 -15.02102 -14.77933 -14.45702 -14.33005
 -14.05295 -13.78144 -13.51219 -13.45685 -13.37638 -13.18641 -13.07510 -12.78373
 -12.67465 -12.17429 -11.97707 -11.08309 -10.68497 -10.38865  -9.75768  -9.28372
  -0.67025  -0.40738   0.68037   0.86812   0.90988   1.07411   1.62143   2.21855
   2.73947   2.76341   2.94026   3.08319   3.23204   3.33426   3.52118   3.79221
   3.87884   3.95184   3.97748   4.37926   4.50903   4.54456   4.65400   4.70029
   4.86782   4.89960   5.01666   5.07708   5.18678   5.24435   5.61460   5.64619
   5.66673   5.81373   5.94877   6.12055   6.18059   6.70718


              NET ATOMIC CHARGES AND DIPOLE CONTRIBUTIONS

  ATOM NO.   TYPE          CHARGE      No. of ELECS.   s-Pop       p-Pop       
    1          C           0.534648        3.4654     1.07945     2.38591
    2          C          -0.660292        4.6603     1.10576     3.55454
    3          C           0.559852        3.4401     1.07117     2.36898
    4          C          -0.559471        4.5595     1.09272     3.46675
    5          C           0.458892        3.5411     1.06657     2.47454
    6          C          -0.535968        4.5360     1.10306     3.43291
    7          C           0.711043        3.2890     1.07728     2.21168
    8          O          -0.482127        6.4821     1.84075     4.64138
    9          C           0.469749        3.5303     1.09680     2.43345
   10          C          -0.554336        4.5543     1.10674     3.44760
   11          O          -0.413495        6.4135     1.84872     4.56477
   12          C          -0.472153        4.4722     1.11263     3.35952
   13          C           0.285048        3.7150     1.08496     2.62999
   14          O          -0.353693        6.3537     1.83850     4.51520
   15          O          -0.432536        6.4325     1.80497     4.62757
   16          C          -0.531115        4.5311     1.09118     3.43993
   17          O          -0.578196        6.5782     1.82361     4.75458
   18          C          -0.193857        4.1939     1.10704     3.08682
   19          H           0.198216        0.8018     0.80178
   20          H           0.207875        0.7921     0.79212
   21          H           0.206137        0.7939     0.79386
   22          H           0.207002        0.7930     0.79300
   23          H           0.186659        0.8133     0.81334
   24          H           0.105816        0.8942     0.89418
   25          H           0.331448        0.6686     0.66855
   26          H           0.180401        0.8196     0.81960
   27          H           0.158814        0.8412     0.84119
   28          H           0.173880        0.8261     0.82612
   29          H           0.334317        0.6657     0.66568
   30          H           0.166771        0.8332     0.83323
   31          H           0.145266        0.8547     0.85473
   32          H           0.145401        0.8546     0.85460
 DIPOLE           X         Y         Z       TOTAL
 POINT-CHG.    -5.257     3.895     1.014     6.621
 HYBRID        -0.559    -0.945    -0.185     1.113
 SUM           -5.816     2.950     0.829     6.574


          ATOMIC ORBITAL ELECTRON POPULATIONS

     Atom    s        px        py        pz   
    1  C   1.07945   0.79743   0.85408   0.73439
    2  C   1.10576   1.09507   1.06716   1.39230
    3  C   1.07117   0.89464   0.74203   0.73230
    4  C   1.09272   1.00867   1.05207   1.40602
    5  C   1.06657   0.89740   0.86034   0.71679
    6  C   1.10306   0.99558   1.13229   1.30503
    7  C   1.07728   0.77632   0.76693   0.66842
    8  O   1.84075   1.56360   1.30769   1.77010
    9  C   1.09680   0.91956   0.74946   0.76443
   10  C   1.10674   1.01533   1.13524   1.29703
   11  O   1.84872   1.74333   1.30075   1.52069
   12  C   1.11263   1.02754   1.14294   1.18904
   13  C   1.08496   0.88733   0.78938   0.95328
   14  O   1.83850   1.23256   1.45330   1.82934
   15  O   1.80497   1.48121   1.30752   1.83884
   16  C   1.09118   1.09944   1.14019   1.20031
   17  O   1.82361   1.53535   1.37697   1.84226
   18  C   1.10704   0.83545   1.11123   1.14014
   19  H   0.80178
   20  H   0.79212
   21  H   0.79386
   22  H   0.79300
   23  H   0.81334
   24  H   0.89418
   25  H   0.66855
   26  H   0.81960
   27  H   0.84119
   28  H   0.82612
   29  H   0.66568
   30  H   0.83323
   31  H   0.85473
   32  H   0.85460

 **********************
 *                    *
 * JOB ENDED NORMALLY *
 *                    *
 **********************



 TOTAL JOB TIME:             3.47 SECONDS

 == MOPAC DONE ==
