 *******************************************************************************
 ** Site#: 35412        For non-commercial use only    Version 20.225L 64BITS **
 *******************************************************************************
 ** Cite this program as: MOPAC2016, Version: 20.225L, James J. P. Stewart,   **
 ** Stewart Computational Chemistry, web: HTTP://OpenMOPAC.net. Days left: 364**
 *******************************************************************************
 **                                                                           **
 **                                MOPAC2016                                  **
 **                                                                           **
 *******************************************************************************

                              PM6 CALCULATION RESULTS

 *******************************************************************************
 *  CALCULATION DONE:                                Fri Aug 14 20:44:08 2020  *
 *  PM6        - The PM6 Hamiltonian to be used
 *  SINGLET    - SPIN STATE DEFINED AS A SINGLET
 *  OPT        - OPTIMIZE COORDINATES OF ALL ATOMS
 *
 *
 *
 *                 CHARGE ON SYSTEM = 0
 *
 *
 *
 *  PRECISE    - CRITERIA TO BE INCREASED BY 100 TIMES
 *  T=         - A TIME OF 172800.0 SECONDS REQUESTED
 *  DUMP=N     - RESTART FILE WRITTEN EVERY 7200.0 SECONDS REQUESTED
 *  AUX        - OUTPUT AUXILIARY INFORMATION
 *  PRTXYZ     - PRINT CARTESIAN COORDINATES
 *  LARGE      - EXPANDED OUTPUT TO BE PRINTED
 *******************************************************************************
 AUX LARGE CHARGE=0 SINGLET  PM6  OPT PRECISE PRTXYZ
 CN346.pdb
 31
   ATOM   CHEMICAL          X               Y               Z
  NUMBER   SYMBOL      (ANGSTROMS)     (ANGSTROMS)     (ANGSTROMS)
 
     1       C         -2.35400000  *   0.73900000  *  -0.39100000  *
     2       C         -2.46500000  *  -0.69400000  *   0.12300000  *
     3       C         -1.16700000  *  -1.38100000  *   0.14700000  *
     4       C         -0.01300000  *  -0.68700000  *   0.08600000  *
     5       C          0.01600000  *   0.79700000  *  -0.12200000  *
     6       C         -1.26200000  *   1.49900000  *   0.35600000  *
     7       C          1.24100000  *  -1.37100000  *   0.19300000  *
     8       O          2.46500000  *  -0.70300000  *   0.15600000  *
     9       C          2.45400000  *   0.68100000  *  -0.23000000  *
    10       C          1.30700000  *   1.41800000  *   0.43600000  *
    11       O          1.24800000  *  -2.57600000  *   0.43700000  *
    12       C         -1.48000000  *   1.51900000  *   1.91400000  *
    13       O         -1.18500000  *  -2.71300000  *   0.30200000  *
    14       C          3.80500000  *   1.29500000  *   0.17400000  *
    15       O         -3.58700000  *   1.32500000  *  -0.23000000  *
    16       H          0.04200000  *   0.92900000  *  -1.21000000  *
    17       H         -2.08800000  *   0.74500000  *  -1.45700000  *
    18       H         -2.80200000  *  -0.67400000  *   1.16600000  *
    19       H         -3.20500000  *  -1.28200000  *  -0.43400000  *
    20       H         -1.21400000  *   2.53800000  *   0.01400000  *
    21       H          2.32100000  *   0.76100000  *  -1.31700000  *
    22       H          1.33300000  *   2.48000000  *   0.16000000  *
    23       H          1.37200000  *   1.31900000  *   1.52900000  *
    24       H         -0.65700000  *   2.06600000  *   2.39000000  *
    25       H         -1.50600000  *   0.49900000  *   2.31700000  *
    26       H         -2.43300000  *   2.02300000  *   2.14000000  *
    27       H         -0.37100000  *  -3.20500000  *   0.33400000  *
    28       H          3.82600000  *   2.35200000  *  -0.12200000  *
    29       H          4.61900000  *   0.75500000  *  -0.33100000  *
    30       H          3.93300000  *   1.21700000  *   1.26300000  *
    31       H         -3.89100000  *   1.35300000  *   0.72500000  *
 


          CARTESIAN COORDINATES 

    NO.       ATOM           X           Y           Z

     1         C         -2.3540      0.7390     -0.3910
     2         C         -2.4650     -0.6940      0.1230
     3         C         -1.1670     -1.3810      0.1470
     4         C         -0.0130     -0.6870      0.0860
     5         C          0.0160      0.7970     -0.1220
     6         C         -1.2620      1.4990      0.3560
     7         C          1.2410     -1.3710      0.1930
     8         O          2.4650     -0.7030      0.1560
     9         C          2.4540      0.6810     -0.2300
    10         C          1.3070      1.4180      0.4360
    11         O          1.2480     -2.5760      0.4370
    12         C         -1.4800      1.5190      1.9140
    13         O         -1.1850     -2.7130      0.3020
    14         C          3.8050      1.2950      0.1740
    15         O         -3.5870      1.3250     -0.2300
    16         H          0.0420      0.9290     -1.2100
    17         H         -2.0880      0.7450     -1.4570
    18         H         -2.8020     -0.6740      1.1660
    19         H         -3.2050     -1.2820     -0.4340
    20         H         -1.2140      2.5380      0.0140
    21         H          2.3210      0.7610     -1.3170
    22         H          1.3330      2.4800      0.1600
    23         H          1.3720      1.3190      1.5290
    24         H         -0.6570      2.0660      2.3900
    25         H         -1.5060      0.4990      2.3170
    26         H         -2.4330      2.0230      2.1400
    27         H         -0.3710     -3.2050      0.3340
    28         H          3.8260      2.3520     -0.1220
    29         H          4.6190      0.7550     -0.3310
    30         H          3.9330      1.2170      1.2630
    31         H         -3.8910      1.3530      0.7250

 General Reference for PM6:
 "Optimization of Parameters for Semiempirical Methods V: Modification of NDDO Approximations
 and Application to 70 Elements", J. J. P. Stewart, J. Mol. Mod., 13, 1173-1213 (2007)
 URL: https://link.springer.com/article/10.1007/s00894-007-0233-4

           Empirical Formula: C11 H16 O4  =    31 atoms



      MOLECULAR POINT GROUP   :   C1  


 SINGLET STATE CALCULATION


      RHF CALCULATION, NO. OF DOUBLY OCCUPIED LEVELS = 42


          Geometry optimization using EF

          DIAGONAL MATRIX USED AS START HESSIAN

 CYCLE:     1 TIME:   0.031 TIME LEFT:  2.00D  GRAD.:   140.161 HEAT: -180.7574
 CYCLE:     2 TIME:   0.047 TIME LEFT:  2.00D  GRAD.:    78.060 HEAT: -188.0643
 CYCLE:     3 TIME:   0.047 TIME LEFT:  2.00D  GRAD.:    72.384 HEAT: -190.2156
 CYCLE:     4 TIME:   0.016 TIME LEFT:  2.00D  GRAD.:    96.255 HEAT: -190.5801
 CYCLE:     5 TIME:   0.023 TIME LEFT:  2.00D  GRAD.:    80.995 HEAT: -191.3753
 CYCLE:     6 TIME:   0.023 TIME LEFT:  2.00D  GRAD.:    74.643 HEAT: -191.8928
 CYCLE:     7 TIME:   0.031 TIME LEFT:  2.00D  GRAD.:    41.267 HEAT: -193.5214
 CYCLE:     8 TIME:   0.031 TIME LEFT:  2.00D  GRAD.:    23.339 HEAT: -194.0638
 CYCLE:     9 TIME:   0.023 TIME LEFT:  2.00D  GRAD.:    33.298 HEAT: -194.2464
 CYCLE:    10 TIME:   0.016 TIME LEFT:  2.00D  GRAD.:    21.174 HEAT: -194.8898
 CYCLE:    11 TIME:   0.016 TIME LEFT:  2.00D  GRAD.:    40.191 HEAT: -194.9783
 CYCLE:    12 TIME:   0.031 TIME LEFT:  2.00D  GRAD.:    32.068 HEAT: -195.3855
 CYCLE:    13 TIME:   0.023 TIME LEFT:  2.00D  GRAD.:    34.169 HEAT: -195.4265
 CYCLE:    14 TIME:   0.016 TIME LEFT:  2.00D  GRAD.:    30.085 HEAT: -195.6732
 CYCLE:    15 TIME:   0.031 TIME LEFT:  2.00D  GRAD.:    14.602 HEAT: -195.9576
 CYCLE:    16 TIME:   0.016 TIME LEFT:  2.00D  GRAD.:    21.106 HEAT: -195.9661
 CYCLE:    17 TIME:   0.023 TIME LEFT:  2.00D  GRAD.:    17.474 HEAT: -196.1522
 CYCLE:    18 TIME:   0.023 TIME LEFT:  2.00D  GRAD.:    24.653 HEAT: -196.1606
 CYCLE:    19 TIME:   0.016 TIME LEFT:  2.00D  GRAD.:    25.315 HEAT: -196.2716
 CYCLE:    20 TIME:   0.016 TIME LEFT:  2.00D  GRAD.:    28.244 HEAT: -196.3069
 CYCLE:    21 TIME:   0.023 TIME LEFT:  2.00D  GRAD.:    23.543 HEAT: -196.5139
 CYCLE:    22 TIME:   0.016 TIME LEFT:  2.00D  GRAD.:    23.921 HEAT: -196.5782
 CYCLE:    23 TIME:   0.016 TIME LEFT:  2.00D  GRAD.:    14.915 HEAT: -196.8124
 CYCLE:    24 TIME:   0.023 TIME LEFT:  2.00D  GRAD.:    23.057 HEAT: -196.8156
 CYCLE:    25 TIME:   0.031 TIME LEFT:  2.00D  GRAD.:    14.643 HEAT: -196.9749
 CYCLE:    26 TIME:   0.070 TIME LEFT:  2.00D  GRAD.:    11.273 HEAT: -197.0430
 CYCLE:    27 TIME:   0.023 TIME LEFT:  2.00D  GRAD.:     5.904 HEAT: -197.1078
 CYCLE:    28 TIME:   0.055 TIME LEFT:  2.00D  GRAD.:     8.066 HEAT: -197.1744
 CYCLE:    29 TIME:   0.016 TIME LEFT:  2.00D  GRAD.:     6.310 HEAT: -197.2662
 CYCLE:    30 TIME:   0.023 TIME LEFT:  2.00D  GRAD.:     4.825 HEAT: -197.3684
 CYCLE:    31 TIME:   0.016 TIME LEFT:  2.00D  GRAD.:     8.755 HEAT: -197.4580
 CYCLE:    32 TIME:   0.023 TIME LEFT:  2.00D  GRAD.:     6.357 HEAT: -197.5041
 CYCLE:    33 TIME:   0.023 TIME LEFT:  2.00D  GRAD.:     5.349 HEAT: -197.5447
 CYCLE:    34 TIME:   0.023 TIME LEFT:  2.00D  GRAD.:     5.958 HEAT: -197.6011
 CYCLE:    35 TIME:   0.016 TIME LEFT:  2.00D  GRAD.:     5.591 HEAT: -197.6440
 CYCLE:    36 TIME:   0.016 TIME LEFT:  2.00D  GRAD.:     4.497 HEAT: -197.6779
 CYCLE:    37 TIME:   0.023 TIME LEFT:  2.00D  GRAD.:     4.123 HEAT: -197.7038
 CYCLE:    38 TIME:   0.016 TIME LEFT:  2.00D  GRAD.:     4.718 HEAT: -197.7331
 CYCLE:    39 TIME:   0.023 TIME LEFT:  2.00D  GRAD.:     4.867 HEAT: -197.7655
 CYCLE:    40 TIME:   0.023 TIME LEFT:  2.00D  GRAD.:     4.248 HEAT: -197.7929
 CYCLE:    41 TIME:   0.016 TIME LEFT:  2.00D  GRAD.:     3.561 HEAT: -197.8139
 CYCLE:    42 TIME:   0.016 TIME LEFT:  2.00D  GRAD.:     3.676 HEAT: -197.8293
 CYCLE:    43 TIME:   0.023 TIME LEFT:  2.00D  GRAD.:     3.053 HEAT: -197.8444
 CYCLE:    44 TIME:   0.016 TIME LEFT:  2.00D  GRAD.:     2.503 HEAT: -197.8587
 CYCLE:    45 TIME:   0.016 TIME LEFT:  2.00D  GRAD.:     2.828 HEAT: -197.8708
 CYCLE:    46 TIME:   0.016 TIME LEFT:  2.00D  GRAD.:     3.074 HEAT: -197.8824
 CYCLE:    47 TIME:   0.023 TIME LEFT:  2.00D  GRAD.:     2.466 HEAT: -197.8963
 CYCLE:    48 TIME:   0.016 TIME LEFT:  2.00D  GRAD.:     2.352 HEAT: -197.9085
 CYCLE:    49 TIME:   0.023 TIME LEFT:  2.00D  GRAD.:     2.327 HEAT: -197.9149
 CYCLE:    50 TIME:   0.016 TIME LEFT:  2.00D  GRAD.:     1.982 HEAT: -197.9224
 CYCLE:    51 TIME:   0.016 TIME LEFT:  2.00D  GRAD.:     1.788 HEAT: -197.9301
 CYCLE:    52 TIME:   0.016 TIME LEFT:  2.00D  GRAD.:     1.525 HEAT: -197.9347
 CYCLE:    53 TIME:   0.023 TIME LEFT:  2.00D  GRAD.:     1.302 HEAT: -197.9389
 CYCLE:    54 TIME:   0.016 TIME LEFT:  2.00D  GRAD.:     1.243 HEAT: -197.9430
 CYCLE:    55 TIME:   0.039 TIME LEFT:  2.00D  GRAD.:     1.308 HEAT: -197.9471
 CYCLE:    56 TIME:   0.016 TIME LEFT:  2.00D  GRAD.:     1.352 HEAT: -197.9517
 CYCLE:    57 TIME:   0.016 TIME LEFT:  2.00D  GRAD.:     1.417 HEAT: -197.9571
 CYCLE:    58 TIME:   0.023 TIME LEFT:  2.00D  GRAD.:     1.525 HEAT: -197.9629
 CYCLE:    59 TIME:   0.016 TIME LEFT:  2.00D  GRAD.:     1.338 HEAT: -197.9676
 CYCLE:    60 TIME:   0.016 TIME LEFT:  2.00D  GRAD.:     1.080 HEAT: -197.9709
 CYCLE:    61 TIME:   0.016 TIME LEFT:  2.00D  GRAD.:     0.873 HEAT: -197.9732
 CYCLE:    62 TIME:   0.023 TIME LEFT:  2.00D  GRAD.:     0.780 HEAT: -197.9750
 CYCLE:    63 TIME:   0.016 TIME LEFT:  2.00D  GRAD.:     0.733 HEAT: -197.9764
 CYCLE:    64 TIME:   0.023 TIME LEFT:  2.00D  GRAD.:     0.674 HEAT: -197.9776
 CYCLE:    65 TIME:   0.023 TIME LEFT:  2.00D  GRAD.:     0.618 HEAT: -197.9786
 CYCLE:    66 TIME:   0.023 TIME LEFT:  2.00D  GRAD.:     0.703 HEAT: -197.9796
 CYCLE:    67 TIME:   0.016 TIME LEFT:  2.00D  GRAD.:     0.825 HEAT: -197.9808
 CYCLE:    68 TIME:   0.023 TIME LEFT:  2.00D  GRAD.:     0.957 HEAT: -197.9825
 CYCLE:    69 TIME:   0.016 TIME LEFT:  2.00D  GRAD.:     1.165 HEAT: -197.9855
 CYCLE:    70 TIME:   0.023 TIME LEFT:  2.00D  GRAD.:     1.125 HEAT: -197.9880
 CYCLE:    71 TIME:   0.016 TIME LEFT:  2.00D  GRAD.:     1.441 HEAT: -197.9934
 CYCLE:    72 TIME:   0.023 TIME LEFT:  2.00D  GRAD.:     1.106 HEAT: -197.9955
 CYCLE:    73 TIME:   0.023 TIME LEFT:  2.00D  GRAD.:     0.869 HEAT: -197.9990
 CYCLE:    74 TIME:   0.023 TIME LEFT:  2.00D  GRAD.:     0.788 HEAT: -198.0006
 CYCLE:    75 TIME:   0.023 TIME LEFT:  2.00D  GRAD.:     0.740 HEAT: -198.0023
 CYCLE:    76 TIME:   0.023 TIME LEFT:  2.00D  GRAD.:     0.547 HEAT: -198.0034
 CYCLE:    77 TIME:   0.016 TIME LEFT:  2.00D  GRAD.:     0.456 HEAT: -198.0042
 CYCLE:    78 TIME:   0.016 TIME LEFT:  2.00D  GRAD.:     0.422 HEAT: -198.0048
 CYCLE:    79 TIME:   0.023 TIME LEFT:  2.00D  GRAD.:     0.354 HEAT: -198.0052
 CYCLE:    80 TIME:   0.031 TIME LEFT:  2.00D  GRAD.:     0.307 HEAT: -198.0054
 CYCLE:    81 TIME:   0.023 TIME LEFT:  2.00D  GRAD.:     0.272 HEAT: -198.0057
 CYCLE:    82 TIME:   0.016 TIME LEFT:  2.00D  GRAD.:     0.240 HEAT: -198.0058
 CYCLE:    83 TIME:   0.016 TIME LEFT:  2.00D  GRAD.:     0.202 HEAT: -198.0060
 CYCLE:    84 TIME:   0.023 TIME LEFT:  2.00D  GRAD.:     0.174 HEAT: -198.0061
 CYCLE:    85 TIME:   0.016 TIME LEFT:  2.00D  GRAD.:     0.165 HEAT: -198.0062
 CYCLE:    86 TIME:   0.016 TIME LEFT:  2.00D  GRAD.:     0.174 HEAT: -198.0063
 CYCLE:    87 TIME:   0.023 TIME LEFT:  2.00D  GRAD.:     0.171 HEAT: -198.0063
 CYCLE:    88 TIME:   0.016 TIME LEFT:  2.00D  GRAD.:     0.159 HEAT: -198.0064
 CYCLE:    89 TIME:   0.016 TIME LEFT:  2.00D  GRAD.:     0.145 HEAT: -198.0065
 CYCLE:    90 TIME:   0.016 TIME LEFT:  2.00D  GRAD.:     0.128 HEAT: -198.0066
 CYCLE:    91 TIME:   0.023 TIME LEFT:  2.00D  GRAD.:     0.113 HEAT: -198.0066
 CYCLE:    92 TIME:   0.016 TIME LEFT:  2.00D  GRAD.:     0.107 HEAT: -198.0066
 CYCLE:    93 TIME:   0.016 TIME LEFT:  2.00D  GRAD.:     0.109 HEAT: -198.0067
 CYCLE:    94 TIME:   0.023 TIME LEFT:  2.00D  GRAD.:     0.117 HEAT: -198.0067
 CYCLE:    95 TIME:   0.016 TIME LEFT:  2.00D  GRAD.:     0.121 HEAT: -198.0068
 CYCLE:    96 TIME:   0.016 TIME LEFT:  2.00D  GRAD.:     0.115 HEAT: -198.0068
 CYCLE:    97 TIME:   0.023 TIME LEFT:  2.00D  GRAD.:     0.105 HEAT: -198.0068
 CYCLE:    98 TIME:   0.016 TIME LEFT:  2.00D  GRAD.:     0.090 HEAT: -198.0069
 CYCLE:    99 TIME:   0.016 TIME LEFT:  2.00D  GRAD.:     0.080 HEAT: -198.0069
 CYCLE:   100 TIME:   0.023 TIME LEFT:  2.00D  GRAD.:     0.075 HEAT: -198.0069
 CYCLE:   101 TIME:   0.016 TIME LEFT:  2.00D  GRAD.:     0.074 HEAT: -198.0069
 CYCLE:   102 TIME:   0.016 TIME LEFT:  2.00D  GRAD.:     0.067 HEAT: -198.0069
 CYCLE:   103 TIME:   0.016 TIME LEFT:  2.00D  GRAD.:     0.094 HEAT: -198.0070
 CYCLE:   104 TIME:   0.023 TIME LEFT:  2.00D  GRAD.:     0.082 HEAT: -198.0070
 CYCLE:   105 TIME:   0.016 TIME LEFT:  2.00D  GRAD.:     0.112 HEAT: -198.0070
 CYCLE:   106 TIME:   0.016 TIME LEFT:  2.00D  GRAD.:     0.095 HEAT: -198.0070
 CYCLE:   107 TIME:   0.023 TIME LEFT:  2.00D  GRAD.:     0.129 HEAT: -198.0071
 CYCLE:   108 TIME:   0.016 TIME LEFT:  2.00D  GRAD.:     0.097 HEAT: -198.0071
 CYCLE:   109 TIME:   0.016 TIME LEFT:  2.00D  GRAD.:     0.075 HEAT: -198.0071
 CYCLE:   110 TIME:   0.023 TIME LEFT:  2.00D  GRAD.:     0.071 HEAT: -198.0072
 CYCLE:   111 TIME:   0.016 TIME LEFT:  2.00D  GRAD.:     0.071 HEAT: -198.0072
 CYCLE:   112 TIME:   0.016 TIME LEFT:  2.00D  GRAD.:     0.069 HEAT: -198.0072
 CYCLE:   113 TIME:   0.016 TIME LEFT:  2.00D  GRAD.:     0.059 HEAT: -198.0072
 CYCLE:   114 TIME:   0.023 TIME LEFT:  2.00D  GRAD.:     0.048 HEAT: -198.0073

     GRADIENT =  0.04764 IS LESS THAN CUTOFF =  0.05000



 -------------------------------------------------------------------------------
 AUX LARGE CHARGE=0 SINGLET  PM6  OPT PRECISE PRTXYZ
 CN346.pdb
 31


     GEOMETRY OPTIMISED USING EIGENVECTOR FOLLOWING (EF).     
     SCF FIELD WAS ACHIEVED                                   


                              PM6 CALCULATION
                                                       MOPAC2016 (Version: 20.225L)
                                                       Fri Aug 14 20:44:10 2020
                                                       No. of days remaining = 364




          FINAL HEAT OF FORMATION =       -198.00725 KCAL/MOL =    -828.46234 KJ/MOL


          TOTAL ENERGY            =      -2732.26010 EV
          ELECTRONIC ENERGY       =     -17234.54985 EV  POINT GROUP:     C1  
          CORE-CORE REPULSION     =      14502.28975 EV
          COSMO AREA              =        226.02 SQUARE ANGSTROMS
          COSMO VOLUME            =        250.39 CUBIC ANGSTROMS

          GRADIENT NORM           =          0.04764 = 0.00856 PER ATOM
          IONIZATION POTENTIAL    =          9.754693 EV
          HOMO LUMO ENERGIES (EV) =         -9.755 -0.157
          NO. OF FILLED LEVELS    =         42
          MOLECULAR WEIGHT        =        212.2450

          MOLECULAR DIMENSIONS (Angstroms)

            Atom       Atom       Distance
            H    31    H    29     8.53067
            H    27    H    22     5.80842
            H    17    H    24     3.87107


          SCF CALCULATIONS        =        123
 
          WALL-CLOCK TIME         =          2.469 SECONDS
          COMPUTATION TIME        =          4.500 SECONDS




   ATOM   CHEMICAL          X               Y               Z
  NUMBER   SYMBOL      (ANGSTROMS)     (ANGSTROMS)     (ANGSTROMS)
 
     1       C         -2.49287721  *   0.71830401  *  -0.33930803  *
     2       C         -2.52142678  *  -0.76282318  *   0.08663262  *
     3       C         -1.15510322  *  -1.36119168  *   0.15619616  *
     4       C          0.01418227  *  -0.66557024  *   0.02455142  *
     5       C          0.00850730  *   0.81294849  *  -0.25745571  *
     6       C         -1.28761705  *   1.48823326  *   0.26094722  *
     7       C          1.28354581  *  -1.35967120  *   0.16832480  *
     8       O          2.47744334  *  -0.70192482  *   0.08348800  *
     9       C          2.51229532  *   0.73852725  *  -0.23108134  *
    10       C          1.28038589  *   1.45099510  *   0.32513389  *
    11       O          1.37227841  *  -2.56948413  *   0.38695848  *
    12       C         -1.37367019  *   1.55649709  *   1.78552604  *
    13       O         -1.21838950  *  -2.68415612  *   0.38613275  *
    14       C          3.81834854  *   1.19077737  *   0.39680956  *
    15       O         -3.72808975  *   1.33494414  *   0.02176149  *
    16       H          0.03006277  *   0.94676369  *  -1.37328205  *
    17       H         -2.50873162  *   0.80648858  *  -1.45181462  *
    18       H         -3.02502293  *  -0.87318521  *   1.07343969  *
    19       H         -3.16842109  *  -1.34791159  *  -0.60524730  *
    20       H         -1.32583406  *   2.53324391  *  -0.13729960  *
    21       H          2.54916650  *   0.77291128  *  -1.34329473  *
    22       H          1.32281871  *   2.53012277  *   0.09074084  *
    23       H          1.27139236  *   1.38198980  *   1.43208184  *
    24       H         -0.68571379  *   2.30700552  *   2.19211278  *
    25       H         -1.11705465  *   0.59595721  *   2.25100419  *
    26       H         -2.38312803  *   1.83332186  *   2.11727386  *
    27       H         -0.26630091  *  -3.13020731  *   0.45952986  *
    28       H          4.07827019  *   2.21278411  *   0.10253294  *
    29       H          4.64358617  *   0.52825521  *   0.09166228  *
    30       H          3.78490048  *   1.14643944  *   1.49345868  *
    31       H         -3.78633435  *   1.47476233  *   0.99329524  *

                             CARTESIAN COORDINATES

   1    C       -2.492877212     0.718304014    -0.339308034
   2    C       -2.521426779    -0.762823181     0.086632620
   3    C       -1.155103220    -1.361191676     0.156196157
   4    C        0.014182270    -0.665570239     0.024551416
   5    C        0.008507300     0.812948492    -0.257455712
   6    C       -1.287617049     1.488233259     0.260947221
   7    C        1.283545811    -1.359671195     0.168324800
   8    O        2.477443337    -0.701924820     0.083488002
   9    C        2.512295318     0.738527246    -0.231081338
  10    C        1.280385888     1.450995103     0.325133889
  11    O        1.372278414    -2.569484128     0.386958484
  12    C       -1.373670186     1.556497088     1.785526038
  13    O       -1.218389499    -2.684156122     0.386132749
  14    C        3.818348538     1.190777369     0.396809560
  15    O       -3.728089745     1.334944136     0.021761492
  16    H        0.030062766     0.946763687    -1.373282052
  17    H       -2.508731623     0.806488584    -1.451814621
  18    H       -3.025022930    -0.873185209     1.073439689
  19    H       -3.168421085    -1.347911593    -0.605247297
  20    H       -1.325834062     2.533243907    -0.137299598
  21    H        2.549166496     0.772911278    -1.343294734
  22    H        1.322818709     2.530122766     0.090740843
  23    H        1.271392361     1.381989801     1.432081836
  24    H       -0.685713785     2.307005524     2.192112781
  25    H       -1.117054650     0.595957210     2.251004188
  26    H       -2.383128031     1.833321865     2.117273861
  27    H       -0.266300915    -3.130207313     0.459529860
  28    H        4.078270189     2.212784109     0.102532936
  29    H        4.643586174     0.528255211     0.091662280
  30    H        3.784900477     1.146439442     1.493458682
  31    H       -3.786334352     1.474762326     0.993295242


           Empirical Formula: C11 H16 O4  =    31 atoms



      MOLECULAR POINT GROUP   :   C1  


                  EIGENVALUES  
 -31.99352 -31.21434 -31.11317 -30.57495 -29.33543 -28.14717 -27.17526 -26.64569
 -25.12014 -24.31432 -22.85950 -22.38964 -21.24875 -20.30514 -19.48231 -18.52577
 -17.73648 -16.95606 -16.68680 -16.40236 -15.98312 -15.54333 -15.35429 -15.05140
 -14.89985 -14.59098 -14.41720 -14.04652 -13.94591 -13.71182 -13.40775 -13.24236
 -13.06868 -12.98023 -12.59957 -12.32996 -12.14097 -11.97041 -11.16895 -10.93290
 -10.71588  -9.75469  -0.15669   1.19634   1.43356   1.90645   2.11839   2.71104
   2.79444   3.02518   3.17396   3.34605   3.38557   3.64051   3.71431   3.89764
   3.99358   4.32940   4.52118   4.53230   4.61223   4.83923   4.87393   5.11451
   5.19333   5.19548   5.33954   5.37226   5.40897   5.45636   5.51985   5.59738
   5.72205   5.84165   6.33104   6.37589


              NET ATOMIC CHARGES AND DIPOLE CONTRIBUTIONS

  ATOM NO.   TYPE          CHARGE      No. of ELECS.   s-Pop       p-Pop       
    1          C           0.199245        3.8008     1.10162     2.69913
    2          C          -0.444014        4.4440     1.10756     3.33646
    3          C           0.495287        3.5047     1.09059     2.41413
    4          C          -0.565577        4.5656     1.10470     3.46087
    5          C           0.045036        3.9550     1.07453     2.88043
    6          C          -0.162367        4.1624     1.10539     3.05697
    7          C           0.709682        3.2903     1.06761     2.22271
    8          O          -0.449128        6.4491     1.84476     4.60436
    9          C           0.244701        3.7553     1.10239     2.65291
   10          C          -0.403671        4.4037     1.10433     3.29934
   11          O          -0.573404        6.5734     1.85747     4.71594
   12          C          -0.464338        4.4643     1.08347     3.38087
   13          O          -0.480977        6.4810     1.81960     4.66138
   14          C          -0.533921        4.5339     1.09149     3.44243
   15          O          -0.554345        6.5543     1.82033     4.73402
   16          H           0.121649        0.8784     0.87835
   17          H           0.140123        0.8599     0.85988
   18          H           0.195253        0.8047     0.80475
   19          H           0.199150        0.8008     0.80085
   20          H           0.144417        0.8556     0.85558
   21          H           0.117749        0.8823     0.88225
   22          H           0.160705        0.8393     0.83929
   23          H           0.174900        0.8251     0.82510
   24          H           0.155154        0.8448     0.84485
   25          H           0.163868        0.8361     0.83613
   26          H           0.139509        0.8605     0.86049
   27          H           0.387331        0.6127     0.61267
   28          H           0.166077        0.8339     0.83392
   29          H           0.183932        0.8161     0.81607
   30          H           0.175878        0.8241     0.82412
   31          H           0.312098        0.6879     0.68790
 DIPOLE           X         Y         Z       TOTAL
 POINT-CHG.    -0.587     5.332    -0.329     5.374
 HYBRID         0.183    -0.712     0.972     1.219
 SUM           -0.404     4.620     0.644     4.682


          ATOMIC ORBITAL ELECTRON POPULATIONS

     Atom    s        px        py        pz   
    1  C   1.10162   0.79993   0.86156   1.03764
    2  C   1.10756   1.04911   1.08117   1.20618
    3  C   1.09059   0.91523   0.76098   0.73792
    4  C   1.10470   1.01755   1.06426   1.37906
    5  C   1.07453   0.93064   0.89452   1.05527
    6  C   1.10539   0.98841   1.08253   0.98603
    7  C   1.06761   0.78533   0.77895   0.65843
    8  O   1.84476   1.44245   1.35366   1.80825
    9  C   1.10239   0.91985   0.70853   1.02454
   10  C   1.10433   1.02132   1.11611   1.16191
   11  O   1.85747   1.83214   1.29538   1.58842
   12  C   1.08347   1.16203   1.18424   1.03460
   13  O   1.81960   1.53757   1.31844   1.80537
   14  C   1.09149   1.09119   1.16864   1.18260
   15  O   1.82033   1.47914   1.84243   1.41245
   16  H   0.87835
   17  H   0.85988
   18  H   0.80475
   19  H   0.80085
   20  H   0.85558
   21  H   0.88225
   22  H   0.83929
   23  H   0.82510
   24  H   0.84485
   25  H   0.83613
   26  H   0.86049
   27  H   0.61267
   28  H   0.83392
   29  H   0.81607
   30  H   0.82412
   31  H   0.68790

 **********************
 *                    *
 * JOB ENDED NORMALLY *
 *                    *
 **********************



 TOTAL JOB TIME:             2.51 SECONDS

 == MOPAC DONE ==
