 *******************************************************************************
 ** Site#: 35412        For non-commercial use only    Version 20.225L 64BITS **
 *******************************************************************************
 ** Cite this program as: MOPAC2016, Version: 20.225L, James J. P. Stewart,   **
 ** Stewart Computational Chemistry, web: HTTP://OpenMOPAC.net. Days left: 364**
 *******************************************************************************
 **                                                                           **
 **                                MOPAC2016                                  **
 **                                                                           **
 *******************************************************************************

                              PM6 CALCULATION RESULTS

 *******************************************************************************
 *  CALCULATION DONE:                                Fri Aug 14 20:43:52 2020  *
 *  PM6        - The PM6 Hamiltonian to be used
 *  SINGLET    - SPIN STATE DEFINED AS A SINGLET
 *  OPT        - OPTIMIZE COORDINATES OF ALL ATOMS
 *
 *
 *
 *                 CHARGE ON SYSTEM = 0
 *
 *
 *
 *  PRECISE    - CRITERIA TO BE INCREASED BY 100 TIMES
 *  T=         - A TIME OF 172800.0 SECONDS REQUESTED
 *  DUMP=N     - RESTART FILE WRITTEN EVERY 7200.0 SECONDS REQUESTED
 *  AUX        - OUTPUT AUXILIARY INFORMATION
 *  PRTXYZ     - PRINT CARTESIAN COORDINATES
 *  LARGE      - EXPANDED OUTPUT TO BE PRINTED
 *******************************************************************************
 AUX LARGE CHARGE=0 SINGLET  PM6  OPT PRECISE PRTXYZ
 CN341.pdb
 26
   ATOM   CHEMICAL          X               Y               Z
  NUMBER   SYMBOL      (ANGSTROMS)     (ANGSTROMS)     (ANGSTROMS)
 
     1       C         11.00800000  *  -7.22100000  *  -1.19500000  *
     2       C         11.48900000  *  -7.28300000  *   0.26500000  *
     3       C         12.87400000  *  -7.92800000  *   0.29700000  *
     4       C          9.63700000  *  -6.66600000  *  -1.24800000  *
     5       O         10.93200000  *  -8.55900000  *  -1.63800000  *
     6       N          8.64400000  *  -7.34700000  *  -0.61500000  *
     7       C          7.43100000  *  -6.97700000  *  -0.67100000  *
     8       C          6.39100000  *  -7.77900000  *   0.06900000  *
     9       C          7.07600000  *  -8.61700000  *   1.12900000  *
    10       O          6.55500000  *  -8.71900000  *   2.40500000  *
    11       O          8.14400000  *  -9.19600000  *   0.87300000  *
    12       O          9.38500000  *  -5.64800000  *  -1.89300000  *
    13       C         11.58200000  *  -5.86700000  *   0.86600000  *
    14       H         11.70600000  *  -6.63000000  *  -1.81100000  *
    15       H         10.78800000  *  -7.88700000  *   0.85600000  *
    16       H         13.22100000  *  -7.98300000  *   1.33500000  *
    17       H         13.57100000  *  -7.32100000  *  -0.29500000  *
    18       H         12.81600000  *  -8.94100000  *  -0.12700000  *
    19       H         10.28000000  *  -9.04400000  *  -1.06000000  *
    20       H          7.15700000  *  -6.12300000  *  -1.23500000  *
    21       H          5.57400000  *  -7.15000000  *   0.46700000  *
    22       H          5.96000000  *  -8.46800000  *  -0.67700000  *
    23       H          5.68200000  *  -8.21800000  *   2.50200000  *
    24       H         11.94300000  *  -5.93600000  *   1.90400000  *
    25       H         10.59200000  *  -5.39000000  *   0.85700000  *
    26       H         12.28600000  *  -5.26800000  *   0.27400000  *
 


          CARTESIAN COORDINATES 

    NO.       ATOM           X           Y           Z

     1         C         11.0080     -7.2210     -1.1950
     2         C         11.4890     -7.2830      0.2650
     3         C         12.8740     -7.9280      0.2970
     4         C          9.6370     -6.6660     -1.2480
     5         O         10.9320     -8.5590     -1.6380
     6         N          8.6440     -7.3470     -0.6150
     7         C          7.4310     -6.9770     -0.6710
     8         C          6.3910     -7.7790      0.0690
     9         C          7.0760     -8.6170      1.1290
    10         O          6.5550     -8.7190      2.4050
    11         O          8.1440     -9.1960      0.8730
    12         O          9.3850     -5.6480     -1.8930
    13         C         11.5820     -5.8670      0.8660
    14         H         11.7060     -6.6300     -1.8110
    15         H         10.7880     -7.8870      0.8560
    16         H         13.2210     -7.9830      1.3350
    17         H         13.5710     -7.3210     -0.2950
    18         H         12.8160     -8.9410     -0.1270
    19         H         10.2800     -9.0440     -1.0600
    20         H          7.1570     -6.1230     -1.2350
    21         H          5.5740     -7.1500      0.4670
    22         H          5.9600     -8.4680     -0.6770
    23         H          5.6820     -8.2180      2.5020
    24         H         11.9430     -5.9360      1.9040
    25         H         10.5920     -5.3900      0.8570
    26         H         12.2860     -5.2680      0.2740

 General Reference for PM6:
 "Optimization of Parameters for Semiempirical Methods V: Modification of NDDO Approximations
 and Application to 70 Elements", J. J. P. Stewart, J. Mol. Mod., 13, 1173-1213 (2007)
 URL: https://link.springer.com/article/10.1007/s00894-007-0233-4

           Empirical Formula: C8 H13 N O4  =    26 atoms



      MOLECULAR POINT GROUP   :   C1  


 SINGLET STATE CALCULATION


      RHF CALCULATION, NO. OF DOUBLY OCCUPIED LEVELS = 37


          Geometry optimization using EF

          DIAGONAL MATRIX USED AS START HESSIAN

 CYCLE:     1 TIME:   0.023 TIME LEFT:  2.00D  GRAD.:   194.183 HEAT: -140.6402
 CYCLE:     2 TIME:   0.031 TIME LEFT:  2.00D  GRAD.:   125.696 HEAT: -148.5223
 CYCLE:     3 TIME:   0.016 TIME LEFT:  2.00D  GRAD.:   116.427 HEAT: -150.3581
 CYCLE:     4 TIME:   0.023 TIME LEFT:  2.00D  GRAD.:   126.821 HEAT: -152.2011
 CYCLE:     5 TIME:   0.016 TIME LEFT:  2.00D  GRAD.:    97.294 HEAT: -154.2443
 CYCLE:     6 TIME:   0.016 TIME LEFT:  2.00D  GRAD.:    68.186 HEAT: -155.6020
 CYCLE:     7 TIME:   0.016 TIME LEFT:  2.00D  GRAD.:    86.206 HEAT: -155.8390
 CYCLE:     8 TIME:   0.016 TIME LEFT:  2.00D  GRAD.:    76.242 HEAT: -156.4947
 CYCLE:     9 TIME:   0.016 TIME LEFT:  2.00D  GRAD.:    82.371 HEAT: -156.9269
 CYCLE:    10 TIME:   0.016 TIME LEFT:  2.00D  GRAD.:    73.125 HEAT: -157.1866
 CYCLE:    11 TIME:   0.016 TIME LEFT:  2.00D  GRAD.:    82.506 HEAT: -157.4547
 CYCLE:    12 TIME:   0.016 TIME LEFT:  2.00D  GRAD.:    76.665 HEAT: -157.7861
 CYCLE:    13 TIME:   0.031 TIME LEFT:  2.00D  GRAD.:    26.288 HEAT: -159.5144
 CYCLE:    14 TIME:   0.031 TIME LEFT:  2.00D  GRAD.:    22.337 HEAT: -159.7857
 CYCLE:    15 TIME:   0.008 TIME LEFT:  2.00D  GRAD.:    26.601 HEAT: -159.9099
 CYCLE:    16 TIME:   0.016 TIME LEFT:  2.00D  GRAD.:    15.693 HEAT: -160.1853
 CYCLE:    17 TIME:   0.023 TIME LEFT:  2.00D  GRAD.:    21.291 HEAT: -160.2781
 CYCLE:    18 TIME:   0.016 TIME LEFT:  2.00D  GRAD.:    13.489 HEAT: -160.4814
 CYCLE:    19 TIME:   0.016 TIME LEFT:  2.00D  GRAD.:    13.914 HEAT: -160.6145
 CYCLE:    20 TIME:   0.016 TIME LEFT:  2.00D  GRAD.:    10.966 HEAT: -160.7237
 CYCLE:    21 TIME:   0.039 TIME LEFT:  2.00D  GRAD.:     7.800 HEAT: -160.7619
 CYCLE:    22 TIME:   0.008 TIME LEFT:  2.00D  GRAD.:     8.646 HEAT: -160.7844
 CYCLE:    23 TIME:   0.023 TIME LEFT:  2.00D  GRAD.:     6.296 HEAT: -160.8347
 CYCLE:    24 TIME:   0.023 TIME LEFT:  2.00D  GRAD.:     7.665 HEAT: -160.8832
 CYCLE:    25 TIME:   0.016 TIME LEFT:  2.00D  GRAD.:     8.810 HEAT: -160.9685
 CYCLE:    26 TIME:   0.016 TIME LEFT:  2.00D  GRAD.:     8.741 HEAT: -161.0478
 CYCLE:    27 TIME:   0.023 TIME LEFT:  2.00D  GRAD.:     7.715 HEAT: -161.1024
 CYCLE:    28 TIME:   0.016 TIME LEFT:  2.00D  GRAD.:     7.971 HEAT: -161.1799
 CYCLE:    29 TIME:   0.023 TIME LEFT:  2.00D  GRAD.:    10.565 HEAT: -161.3466
 CYCLE:    30 TIME:   0.023 TIME LEFT:  2.00D  GRAD.:     9.371 HEAT: -161.4349
 CYCLE:    31 TIME:   0.016 TIME LEFT:  2.00D  GRAD.:     7.254 HEAT: -161.5045
 CYCLE:    32 TIME:   0.008 TIME LEFT:  2.00D  GRAD.:     9.418 HEAT: -161.6021
 CYCLE:    33 TIME:   0.016 TIME LEFT:  2.00D  GRAD.:     8.565 HEAT: -161.7076
 CYCLE:    34 TIME:   0.016 TIME LEFT:  2.00D  GRAD.:    13.528 HEAT: -161.8036
 CYCLE:    35 TIME:   0.016 TIME LEFT:  2.00D  GRAD.:    12.693 HEAT: -161.9622
 CYCLE:    36 TIME:   0.016 TIME LEFT:  2.00D  GRAD.:    15.319 HEAT: -162.2334
 CYCLE:    37 TIME:   0.016 TIME LEFT:  2.00D  GRAD.:    25.525 HEAT: -162.5594
 CYCLE:    38 TIME:   0.016 TIME LEFT:  2.00D  GRAD.:    16.512 HEAT: -162.7705
 CYCLE:    39 TIME:   0.031 TIME LEFT:  2.00D  GRAD.:    15.766 HEAT: -163.1122
 CYCLE:    40 TIME:   0.016 TIME LEFT:  2.00D  GRAD.:    39.260 HEAT: -163.4188
 CYCLE:    41 TIME:   0.008 TIME LEFT:  2.00D  GRAD.:    16.923 HEAT: -163.7417
 CYCLE:    42 TIME:   0.023 TIME LEFT:  2.00D  GRAD.:    14.749 HEAT: -164.1000
 CYCLE:    43 TIME:   0.008 TIME LEFT:  2.00D  GRAD.:    22.892 HEAT: -164.4106
 CYCLE:    44 TIME:   0.016 TIME LEFT:  2.00D  GRAD.:    16.702 HEAT: -164.6873
 CYCLE:    45 TIME:   0.016 TIME LEFT:  2.00D  GRAD.:    15.315 HEAT: -164.8441
 CYCLE:    46 TIME:   0.016 TIME LEFT:  2.00D  GRAD.:    11.378 HEAT: -164.9371
 CYCLE:    47 TIME:   0.016 TIME LEFT:  2.00D  GRAD.:    19.784 HEAT: -165.0019
 CYCLE:    48 TIME:   0.008 TIME LEFT:  2.00D  GRAD.:    14.673 HEAT: -165.0701
 CYCLE:    49 TIME:   0.016 TIME LEFT:  2.00D  GRAD.:     8.712 HEAT: -165.1489
 CYCLE:    50 TIME:   0.016 TIME LEFT:  2.00D  GRAD.:     8.595 HEAT: -165.2187
 CYCLE:    51 TIME:   0.016 TIME LEFT:  2.00D  GRAD.:    10.269 HEAT: -165.2980
 CYCLE:    52 TIME:   0.016 TIME LEFT:  2.00D  GRAD.:     8.284 HEAT: -165.3949
 CYCLE:    53 TIME:   0.016 TIME LEFT:  2.00D  GRAD.:     6.737 HEAT: -165.4802
 CYCLE:    54 TIME:   0.008 TIME LEFT:  2.00D  GRAD.:     6.022 HEAT: -165.5169
 CYCLE:    55 TIME:   0.016 TIME LEFT:  2.00D  GRAD.:     5.608 HEAT: -165.5486
 CYCLE:    56 TIME:   0.016 TIME LEFT:  2.00D  GRAD.:     6.871 HEAT: -165.5852
 CYCLE:    57 TIME:   0.016 TIME LEFT:  2.00D  GRAD.:     6.694 HEAT: -165.6194
 CYCLE:    58 TIME:   0.016 TIME LEFT:  2.00D  GRAD.:     9.184 HEAT: -165.6969
 CYCLE:    59 TIME:   0.008 TIME LEFT:  2.00D  GRAD.:     9.510 HEAT: -165.7824
 CYCLE:    60 TIME:   0.016 TIME LEFT:  2.00D  GRAD.:     6.081 HEAT: -165.8626
 CYCLE:    61 TIME:   0.016 TIME LEFT:  2.00D  GRAD.:     9.639 HEAT: -165.9649
 CYCLE:    62 TIME:   0.016 TIME LEFT:  2.00D  GRAD.:    10.087 HEAT: -166.1047
 CYCLE:    63 TIME:   0.016 TIME LEFT:  2.00D  GRAD.:     7.600 HEAT: -166.2050
 CYCLE:    64 TIME:   0.016 TIME LEFT:  2.00D  GRAD.:    10.171 HEAT: -166.2942
 CYCLE:    65 TIME:   0.016 TIME LEFT:  2.00D  GRAD.:    10.834 HEAT: -166.3721
 CYCLE:    66 TIME:   0.016 TIME LEFT:  2.00D  GRAD.:    15.288 HEAT: -166.4574
 CYCLE:    67 TIME:   0.016 TIME LEFT:  2.00D  GRAD.:    11.525 HEAT: -166.5378
 CYCLE:    68 TIME:   0.016 TIME LEFT:  2.00D  GRAD.:     8.244 HEAT: -166.6180
 CYCLE:    69 TIME:   0.016 TIME LEFT:  2.00D  GRAD.:     7.069 HEAT: -166.6752
 CYCLE:    70 TIME:   0.008 TIME LEFT:  2.00D  GRAD.:    10.152 HEAT: -166.7347
 CYCLE:    71 TIME:   0.016 TIME LEFT:  2.00D  GRAD.:     9.187 HEAT: -166.7792
 CYCLE:    72 TIME:   0.016 TIME LEFT:  2.00D  GRAD.:     8.670 HEAT: -166.8417
 CYCLE:    73 TIME:   0.008 TIME LEFT:  2.00D  GRAD.:    11.565 HEAT: -166.8845
 CYCLE:    74 TIME:   0.016 TIME LEFT:  2.00D  GRAD.:     5.637 HEAT: -166.9275
 CYCLE:    75 TIME:   0.016 TIME LEFT:  2.00D  GRAD.:     6.485 HEAT: -166.9782
 CYCLE:    76 TIME:   0.016 TIME LEFT:  2.00D  GRAD.:     5.505 HEAT: -167.0312
 CYCLE:    77 TIME:   0.016 TIME LEFT:  2.00D  GRAD.:     4.974 HEAT: -167.0608
 CYCLE:    78 TIME:   0.016 TIME LEFT:  2.00D  GRAD.:     9.973 HEAT: -167.0886
 CYCLE:    79 TIME:   0.016 TIME LEFT:  2.00D  GRAD.:     7.296 HEAT: -167.1290
 CYCLE:    80 TIME:   0.023 TIME LEFT:  2.00D  GRAD.:     5.426 HEAT: -167.1601
 CYCLE:    81 TIME:   0.016 TIME LEFT:  2.00D  GRAD.:     4.307 HEAT: -167.2056
 CYCLE:    82 TIME:   0.008 TIME LEFT:  2.00D  GRAD.:     5.669 HEAT: -167.2463
 CYCLE:    83 TIME:   0.016 TIME LEFT:  2.00D  GRAD.:     4.850 HEAT: -167.2853
 CYCLE:    84 TIME:   0.016 TIME LEFT:  2.00D  GRAD.:     5.541 HEAT: -167.3221
 CYCLE:    85 TIME:   0.016 TIME LEFT:  2.00D  GRAD.:     5.393 HEAT: -167.3541
 CYCLE:    86 TIME:   0.008 TIME LEFT:  2.00D  GRAD.:     4.701 HEAT: -167.3894
 CYCLE:    87 TIME:   0.016 TIME LEFT:  2.00D  GRAD.:     7.214 HEAT: -167.4284
 CYCLE:    88 TIME:   0.016 TIME LEFT:  2.00D  GRAD.:     6.788 HEAT: -167.4660
 CYCLE:    89 TIME:   0.016 TIME LEFT:  2.00D  GRAD.:     5.471 HEAT: -167.5078
 CYCLE:    90 TIME:   0.016 TIME LEFT:  2.00D  GRAD.:     6.138 HEAT: -167.5720
 CYCLE:    91 TIME:   0.016 TIME LEFT:  2.00D  GRAD.:     6.200 HEAT: -167.6368
 CYCLE:    92 TIME:   0.016 TIME LEFT:  2.00D  GRAD.:     7.253 HEAT: -167.7257
 CYCLE:    93 TIME:   0.023 TIME LEFT:  2.00D  GRAD.:     5.591 HEAT: -167.7921
 CYCLE:    94 TIME:   0.016 TIME LEFT:  2.00D  GRAD.:     7.532 HEAT: -167.8258
 CYCLE:    95 TIME:   0.023 TIME LEFT:  2.00D  GRAD.:     5.601 HEAT: -167.8550
 CYCLE:    96 TIME:   0.016 TIME LEFT:  2.00D  GRAD.:     3.767 HEAT: -167.8758
 CYCLE:    97 TIME:   0.016 TIME LEFT:  2.00D  GRAD.:     6.226 HEAT: -167.8973
 CYCLE:    98 TIME:   0.016 TIME LEFT:  2.00D  GRAD.:     6.799 HEAT: -167.9075
 CYCLE:    99 TIME:   0.023 TIME LEFT:  2.00D  GRAD.:     2.374 HEAT: -167.9327
 CYCLE:   100 TIME:   0.016 TIME LEFT:  2.00D  GRAD.:     1.863 HEAT: -167.9503
 CYCLE:   101 TIME:   0.008 TIME LEFT:  2.00D  GRAD.:     1.878 HEAT: -167.9624
 CYCLE:   102 TIME:   0.016 TIME LEFT:  2.00D  GRAD.:     1.907 HEAT: -167.9682
 CYCLE:   103 TIME:   0.016 TIME LEFT:  2.00D  GRAD.:     2.089 HEAT: -167.9749
 CYCLE:   104 TIME:   0.016 TIME LEFT:  2.00D  GRAD.:     2.586 HEAT: -167.9817
 CYCLE:   105 TIME:   0.016 TIME LEFT:  2.00D  GRAD.:     2.575 HEAT: -167.9893
 CYCLE:   106 TIME:   0.008 TIME LEFT:  2.00D  GRAD.:     2.396 HEAT: -167.9972
 CYCLE:   107 TIME:   0.016 TIME LEFT:  2.00D  GRAD.:     1.650 HEAT: -168.0016
 CYCLE:   108 TIME:   0.016 TIME LEFT:  2.00D  GRAD.:     1.581 HEAT: -168.0091
 CYCLE:   109 TIME:   0.016 TIME LEFT:  2.00D  GRAD.:     1.537 HEAT: -168.0129
 CYCLE:   110 TIME:   0.008 TIME LEFT:  2.00D  GRAD.:     2.556 HEAT: -168.0234
 CYCLE:   111 TIME:   0.016 TIME LEFT:  2.00D  GRAD.:     1.538 HEAT: -168.0277
 CYCLE:   112 TIME:   0.016 TIME LEFT:  2.00D  GRAD.:     2.000 HEAT: -168.0351
 CYCLE:   113 TIME:   0.016 TIME LEFT:  2.00D  GRAD.:     2.450 HEAT: -168.0394
 CYCLE:   114 TIME:   0.016 TIME LEFT:  2.00D  GRAD.:     3.006 HEAT: -168.0485
 CYCLE:   115 TIME:   0.016 TIME LEFT:  2.00D  GRAD.:     2.533 HEAT: -168.0569
 CYCLE:   116 TIME:   0.016 TIME LEFT:  2.00D  GRAD.:     1.947 HEAT: -168.0723
 CYCLE:   117 TIME:   0.008 TIME LEFT:  2.00D  GRAD.:     2.146 HEAT: -168.0842
 CYCLE:   118 TIME:   0.016 TIME LEFT:  2.00D  GRAD.:     2.347 HEAT: -168.0949
 CYCLE:   119 TIME:   0.016 TIME LEFT:  2.00D  GRAD.:     1.985 HEAT: -168.1031
 CYCLE:   120 TIME:   0.016 TIME LEFT:  2.00D  GRAD.:     1.690 HEAT: -168.1115
 CYCLE:   121 TIME:   0.016 TIME LEFT:  2.00D  GRAD.:     1.970 HEAT: -168.1175
 CYCLE:   122 TIME:   0.008 TIME LEFT:  2.00D  GRAD.:     2.209 HEAT: -168.1259
 CYCLE:   123 TIME:   0.016 TIME LEFT:  2.00D  GRAD.:     2.262 HEAT: -168.1351
 CYCLE:   124 TIME:   0.016 TIME LEFT:  2.00D  GRAD.:     1.791 HEAT: -168.1440
 CYCLE:   125 TIME:   0.016 TIME LEFT:  2.00D  GRAD.:     1.427 HEAT: -168.1485
 CYCLE:   126 TIME:   0.008 TIME LEFT:  2.00D  GRAD.:     1.199 HEAT: -168.1519
 CYCLE:   127 TIME:   0.016 TIME LEFT:  2.00D  GRAD.:     1.101 HEAT: -168.1548
 CYCLE:   128 TIME:   0.016 TIME LEFT:  2.00D  GRAD.:     1.150 HEAT: -168.1585
 CYCLE:   129 TIME:   0.016 TIME LEFT:  2.00D  GRAD.:     1.292 HEAT: -168.1621
 CYCLE:   130 TIME:   0.016 TIME LEFT:  2.00D  GRAD.:     1.385 HEAT: -168.1665
 CYCLE:   131 TIME:   0.016 TIME LEFT:  2.00D  GRAD.:     1.494 HEAT: -168.1711
 CYCLE:   132 TIME:   0.008 TIME LEFT:  2.00D  GRAD.:     1.449 HEAT: -168.1754
 CYCLE:   133 TIME:   0.016 TIME LEFT:  2.00D  GRAD.:     1.309 HEAT: -168.1783
 CYCLE:   134 TIME:   0.016 TIME LEFT:  2.00D  GRAD.:     1.012 HEAT: -168.1804
 CYCLE:   135 TIME:   0.016 TIME LEFT:  2.00D  GRAD.:     1.068 HEAT: -168.1821
 CYCLE:   136 TIME:   0.016 TIME LEFT:  2.00D  GRAD.:     1.084 HEAT: -168.1841
 CYCLE:   137 TIME:   0.008 TIME LEFT:  2.00D  GRAD.:     1.461 HEAT: -168.1867
 CYCLE:   138 TIME:   0.016 TIME LEFT:  2.00D  GRAD.:     2.135 HEAT: -168.1916
 CYCLE:   139 TIME:   0.016 TIME LEFT:  2.00D  GRAD.:     2.146 HEAT: -168.1958
 CYCLE:   140 TIME:   0.016 TIME LEFT:  2.00D  GRAD.:     2.819 HEAT: -168.2096
 CYCLE:   141 TIME:   0.008 TIME LEFT:  2.00D  GRAD.:     2.373 HEAT: -168.2172
 CYCLE:   142 TIME:   0.023 TIME LEFT:  2.00D  GRAD.:     2.856 HEAT: -168.2373
 CYCLE:   143 TIME:   0.008 TIME LEFT:  2.00D  GRAD.:     1.905 HEAT: -168.2429
 CYCLE:   144 TIME:   0.016 TIME LEFT:  2.00D  GRAD.:     2.023 HEAT: -168.2504
 CYCLE:   145 TIME:   0.016 TIME LEFT:  2.00D  GRAD.:     2.306 HEAT: -168.2577
 CYCLE:   146 TIME:   0.016 TIME LEFT:  2.00D  GRAD.:     2.162 HEAT: -168.2674
 CYCLE:   147 TIME:   0.016 TIME LEFT:  2.00D  GRAD.:     2.182 HEAT: -168.2820
 CYCLE:   148 TIME:   0.008 TIME LEFT:  2.00D  GRAD.:     2.591 HEAT: -168.2968
 CYCLE:   149 TIME:   0.016 TIME LEFT:  2.00D  GRAD.:     2.193 HEAT: -168.3090
 CYCLE:   150 TIME:   0.016 TIME LEFT:  2.00D  GRAD.:     4.679 HEAT: -168.3051
 CYCLE:   151 TIME:   0.023 TIME LEFT:  2.00D  GRAD.:     6.385 HEAT: -168.3077
 CYCLE:   152 TIME:   0.008 TIME LEFT:  2.00D  GRAD.:     2.048 HEAT: -168.3252
 CYCLE:   153 TIME:   0.016 TIME LEFT:  2.00D  GRAD.:     1.255 HEAT: -168.3296
 CYCLE:   154 TIME:   0.016 TIME LEFT:  2.00D  GRAD.:     1.421 HEAT: -168.3320
 CYCLE:   155 TIME:   0.016 TIME LEFT:  2.00D  GRAD.:     1.137 HEAT: -168.3348
 CYCLE:   156 TIME:   0.016 TIME LEFT:  2.00D  GRAD.:     1.157 HEAT: -168.3365
 CYCLE:   157 TIME:   0.016 TIME LEFT:  2.00D  GRAD.:     0.753 HEAT: -168.3372
 CYCLE:   158 TIME:   0.008 TIME LEFT:  2.00D  GRAD.:     0.636 HEAT: -168.3386
 CYCLE:   159 TIME:   0.016 TIME LEFT:  2.00D  GRAD.:     0.684 HEAT: -168.3394
 CYCLE:   160 TIME:   0.016 TIME LEFT:  2.00D  GRAD.:     0.699 HEAT: -168.3404
 CYCLE:   161 TIME:   0.016 TIME LEFT:  2.00D  GRAD.:     0.562 HEAT: -168.3411
 CYCLE:   162 TIME:   0.016 TIME LEFT:  2.00D  GRAD.:     0.635 HEAT: -168.3417
 CYCLE:   163 TIME:   0.016 TIME LEFT:  2.00D  GRAD.:     0.449 HEAT: -168.3421
 CYCLE:   164 TIME:   0.016 TIME LEFT:  2.00D  GRAD.:     0.382 HEAT: -168.3424
 CYCLE:   165 TIME:   0.016 TIME LEFT:  2.00D  GRAD.:     0.326 HEAT: -168.3427
 CYCLE:   166 TIME:   0.023 TIME LEFT:  2.00D  GRAD.:     0.395 HEAT: -168.3429
 CYCLE:   167 TIME:   0.023 TIME LEFT:  2.00D  GRAD.:     0.533 HEAT: -168.3431
 CYCLE:   168 TIME:   0.016 TIME LEFT:  2.00D  GRAD.:     0.632 HEAT: -168.3434
 CYCLE:   169 TIME:   0.016 TIME LEFT:  2.00D  GRAD.:     0.847 HEAT: -168.3441
 CYCLE:   170 TIME:   0.016 TIME LEFT:  2.00D  GRAD.:     0.702 HEAT: -168.3450
 CYCLE:   171 TIME:   0.016 TIME LEFT:  2.00D  GRAD.:     0.637 HEAT: -168.3464
 CYCLE:   172 TIME:   0.016 TIME LEFT:  2.00D  GRAD.:     0.606 HEAT: -168.3468
 CYCLE:   173 TIME:   0.016 TIME LEFT:  2.00D  GRAD.:     0.355 HEAT: -168.3471
 CYCLE:   174 TIME:   0.016 TIME LEFT:  2.00D  GRAD.:     0.335 HEAT: -168.3472
 CYCLE:   175 TIME:   0.016 TIME LEFT:  2.00D  GRAD.:     0.450 HEAT: -168.3474
 CYCLE:   176 TIME:   0.016 TIME LEFT:  2.00D  GRAD.:     0.500 HEAT: -168.3476
 CYCLE:   177 TIME:   0.008 TIME LEFT:  2.00D  GRAD.:     0.448 HEAT: -168.3479
 CYCLE:   178 TIME:   0.016 TIME LEFT:  2.00D  GRAD.:     0.328 HEAT: -168.3480
 CYCLE:   179 TIME:   0.016 TIME LEFT:  2.00D  GRAD.:     0.310 HEAT: -168.3481
 CYCLE:   180 TIME:   0.016 TIME LEFT:  2.00D  GRAD.:     0.234 HEAT: -168.3481
 CYCLE:   181 TIME:   0.016 TIME LEFT:  2.00D  GRAD.:     0.245 HEAT: -168.3483
 CYCLE:   182 TIME:   0.008 TIME LEFT:  2.00D  GRAD.:     0.220 HEAT: -168.3484
 CYCLE:   183 TIME:   0.016 TIME LEFT:  2.00D  GRAD.:     0.584 HEAT: -168.3493
 CYCLE:   184 TIME:   0.016 TIME LEFT:  2.00D  GRAD.:     0.666 HEAT: -168.3499
 CYCLE:   185 TIME:   0.016 TIME LEFT:  2.00D  GRAD.:     0.789 HEAT: -168.3510
 CYCLE:   186 TIME:   0.008 TIME LEFT:  2.00D  GRAD.:     0.640 HEAT: -168.3516
 CYCLE:   187 TIME:   0.016 TIME LEFT:  2.00D  GRAD.:     0.408 HEAT: -168.3520
 CYCLE:   188 TIME:   0.016 TIME LEFT:  2.00D  GRAD.:     0.313 HEAT: -168.3521
 CYCLE:   189 TIME:   0.016 TIME LEFT:  2.00D  GRAD.:     0.301 HEAT: -168.3523
 CYCLE:   190 TIME:   0.016 TIME LEFT:  2.00D  GRAD.:     0.353 HEAT: -168.3525
 CYCLE:   191 TIME:   0.016 TIME LEFT:  2.00D  GRAD.:     0.488 HEAT: -168.3527
 CYCLE:   192 TIME:   0.008 TIME LEFT:  2.00D  GRAD.:     0.580 HEAT: -168.3529
 CYCLE:   193 TIME:   0.016 TIME LEFT:  2.00D  GRAD.:     0.701 HEAT: -168.3535
 CYCLE:   194 TIME:   0.016 TIME LEFT:  2.00D  GRAD.:     0.893 HEAT: -168.3542
 CYCLE:   195 TIME:   0.016 TIME LEFT:  2.00D  GRAD.:     0.943 HEAT: -168.3552
 CYCLE:   196 TIME:   0.016 TIME LEFT:  2.00D  GRAD.:     0.341 HEAT: -168.3560
 CYCLE:   197 TIME:   0.008 TIME LEFT:  2.00D  GRAD.:     0.171 HEAT: -168.3561
 CYCLE:   198 TIME:   0.016 TIME LEFT:  2.00D  GRAD.:     0.136 HEAT: -168.3561
 CYCLE:   199 TIME:   0.016 TIME LEFT:  2.00D  GRAD.:     0.098 HEAT: -168.3561
 CYCLE:   200 TIME:   0.016 TIME LEFT:  2.00D  GRAD.:     0.103 HEAT: -168.3561
 CYCLE:   201 TIME:   0.016 TIME LEFT:  2.00D  GRAD.:     0.137 HEAT: -168.3562
 CYCLE:   202 TIME:   0.008 TIME LEFT:  2.00D  GRAD.:     0.162 HEAT: -168.3562
 CYCLE:   203 TIME:   0.016 TIME LEFT:  2.00D  GRAD.:     0.298 HEAT: -168.3564
 CYCLE:   204 TIME:   0.016 TIME LEFT:  2.00D  GRAD.:     0.317 HEAT: -168.3565
 CYCLE:   205 TIME:   0.016 TIME LEFT:  2.00D  GRAD.:     0.210 HEAT: -168.3568
 CYCLE:   206 TIME:   0.008 TIME LEFT:  2.00D  GRAD.:     0.148 HEAT: -168.3568
 CYCLE:   207 TIME:   0.016 TIME LEFT:  2.00D  GRAD.:     0.093 HEAT: -168.3569
 CYCLE:   208 TIME:   0.016 TIME LEFT:  2.00D  GRAD.:     0.054 HEAT: -168.3569
 CYCLE:   209 TIME:   0.016 TIME LEFT:  2.00D  GRAD.:     0.028 HEAT: -168.3569

     GRADIENT =  0.02769 IS LESS THAN CUTOFF =  0.05000



 -------------------------------------------------------------------------------
 AUX LARGE CHARGE=0 SINGLET  PM6  OPT PRECISE PRTXYZ
 CN341.pdb
 26


     GEOMETRY OPTIMISED USING EIGENVECTOR FOLLOWING (EF).     
     SCF FIELD WAS ACHIEVED                                   


                              PM6 CALCULATION
                                                       MOPAC2016 (Version: 20.225L)
                                                       Fri Aug 14 20:43:56 2020
                                                       No. of days remaining = 364




          FINAL HEAT OF FORMATION =       -168.35687 KCAL/MOL =    -704.40516 KJ/MOL


          TOTAL ENERGY            =      -2502.47075 EV
          ELECTRONIC ENERGY       =     -13545.01384 EV  POINT GROUP:     C1  
          CORE-CORE REPULSION     =      11042.54309 EV
          COSMO AREA              =        218.31 SQUARE ANGSTROMS
          COSMO VOLUME            =        234.89 CUBIC ANGSTROMS

          GRADIENT NORM           =          0.02769 = 0.00543 PER ATOM
          IONIZATION POTENTIAL    =         10.386984 EV
          HOMO LUMO ENERGIES (EV) =        -10.387 -0.700
          NO. OF FILLED LEVELS    =         37
          MOLECULAR WEIGHT        =        187.1950

          MOLECULAR DIMENSIONS (Angstroms)

            Atom       Atom       Distance
            H    22    H    17     8.11719
            O    12    O    11     5.22075
            H    24    O     5     3.75019


          SCF CALCULATIONS        =        217
 
          WALL-CLOCK TIME         =          3.297 SECONDS
          COMPUTATION TIME        =          6.109 SECONDS




   ATOM   CHEMICAL          X               Y               Z
  NUMBER   SYMBOL      (ANGSTROMS)     (ANGSTROMS)     (ANGSTROMS)
 
     1       C         10.86819261  *  -7.15223588  *  -0.99361798  *
     2       C         11.63915362  *  -7.01806174  *   0.34338677  *
     3       C         12.89387701  *  -7.89171850  *   0.29307878  *
     4       C          9.57399925  *  -6.31302811  *  -0.98233020  *
     5       O         10.53889049  *  -8.50272764  *  -1.29801273  *
     6       N          8.45248593  *  -6.97181570  *  -0.37585715  *
     7       C          7.40745930  *  -7.45522963  *  -0.94927916  *
     8       C          6.33056071  *  -8.08240628  *  -0.10845017  *
     9       C          6.82560830  *  -9.03574848  *   0.96402693  *
    10       O          7.73648941  *  -8.55851121  *   1.86317183  *
    11       O          6.44741952  * -10.17046895  *   1.09949817  *
    12       O          9.50468667  *  -5.16244019  *  -1.33951173  *
    13       C         11.99619299  *  -5.55636128  *   0.60988276  *
    14       H         11.48983269  *  -6.84286029  *  -1.87059752  *
    15       H         10.97694195  *  -7.38649912  *   1.16823165  *
    16       H         13.37603022  *  -7.94917533  *   1.27574400  *
    17       H         13.63807872  *  -7.50118887  *  -0.41152333  *
    18       H         12.66162106  *  -8.91698315  *  -0.02430851  *
    19       H         10.22923849  *  -8.98497920  *  -0.49546481  *
    20       H          7.20224481  *  -7.45644928  *  -2.03364988  *
    21       H          5.71863009  *  -7.28073491  *   0.37293435  *
    22       H          5.60809443  *  -8.63711963  *  -0.75472576  *
    23       H          8.08452592  *  -7.63900104  *   1.67308864  *
    24       H         12.53838458  *  -5.45014652  *   1.55741023  *
    25       H         11.10765148  *  -4.91427149  *   0.67098864  *
    26       H         12.63787513  *  -5.13815529  *  -0.17558574  *

                             CARTESIAN COORDINATES

   1    C       10.868192613    -7.152235878    -0.993617976
   2    C       11.639153616    -7.018061735     0.343386774
   3    C       12.893877005    -7.891718500     0.293078783
   4    C        9.573999251    -6.313028111    -0.982330196
   5    O       10.538890491    -8.502727639    -1.298012733
   6    N        8.452485930    -6.971815701    -0.375857148
   7    C        7.407459303    -7.455229635    -0.949279161
   8    C        6.330560714    -8.082406280    -0.108450175
   9    C        6.825608305    -9.035748483     0.964026925
  10    O        7.736489410    -8.558511210     1.863171827
  11    O        6.447419517   -10.170468952     1.099498175
  12    O        9.504686673    -5.162440194    -1.339511726
  13    C       11.996192992    -5.556361282     0.609882764
  14    H       11.489832687    -6.842860289    -1.870597517
  15    H       10.976941953    -7.386499117     1.168231647
  16    H       13.376030216    -7.949175334     1.275744000
  17    H       13.638078719    -7.501188869    -0.411523325
  18    H       12.661621062    -8.916983148    -0.024308512
  19    H       10.229238486    -8.984979200    -0.495464814
  20    H        7.202244806    -7.456449276    -2.033649877
  21    H        5.718630093    -7.280734913     0.372934345
  22    H        5.608094433    -8.637119631    -0.754725762
  23    H        8.084525920    -7.639001039     1.673088641
  24    H       12.538384578    -5.450146516     1.557410229
  25    H       11.107651476    -4.914271493     0.670988637
  26    H       12.637875135    -5.138155292    -0.175585741


           Empirical Formula: C8 H13 N O4  =    26 atoms



      MOLECULAR POINT GROUP   :   C1  


                  EIGENVALUES  
 -33.21772 -32.62406 -32.11740 -31.05813 -30.80873 -28.65670 -27.94361 -25.65944
 -24.53132 -23.52044 -22.15319 -21.02595 -20.59712 -18.88901 -18.27108 -17.34681
 -17.13233 -16.82797 -16.29781 -15.91004 -15.62461 -15.11108 -14.94944 -14.61105
 -14.30889 -14.03549 -13.91453 -13.61078 -12.87766 -12.64746 -12.60567 -12.42375
 -12.36473 -12.04665 -11.49346 -11.33150 -10.38698  -0.69952  -0.00563   0.28007
   1.20028   1.35148   1.88899   2.34167   2.44554   2.79549   2.98975   3.67342
   3.69327   3.90834   3.95188   4.15119   4.16198   4.52085   4.69874   4.85058
   5.11582   5.16149   5.23203   5.50413   5.50797   5.57033   5.64910   6.43752
   6.55218


              NET ATOMIC CHARGES AND DIPOLE CONTRIBUTIONS

  ATOM NO.   TYPE          CHARGE      No. of ELECS.   s-Pop       p-Pop       
    1          C           0.025003        3.9750     1.13146     2.84353
    2          C          -0.033867        4.0339     1.08777     2.94610
    3          C          -0.488808        4.4888     1.08703     3.40178
    4          C           0.542749        3.4573     1.12844     2.32881
    5          O          -0.528630        6.5286     1.82119     4.70744
    6          N          -0.498207        5.4982     1.68410     3.81410
    7          C           0.204816        3.7952     1.11082     2.68437
    8          C          -0.521236        4.5212     1.11845     3.40278
    9          C           0.675088        3.3249     1.07540     2.24951
   10          O          -0.513705        6.5137     1.80954     4.70417
   11          O          -0.449175        6.4492     1.85063     4.59855
   12          O          -0.454199        6.4542     1.85241     4.60178
   13          C          -0.499283        4.4993     1.08715     3.41213
   14          H           0.180664        0.8193     0.81934
   15          H           0.130949        0.8691     0.86905
   16          H           0.158539        0.8415     0.84146
   17          H           0.159886        0.8401     0.84011
   18          H           0.163049        0.8370     0.83695
   19          H           0.321209        0.6788     0.67879
   20          H           0.145120        0.8549     0.85488
   21          H           0.216867        0.7831     0.78313
   22          H           0.212973        0.7870     0.78703
   23          H           0.359751        0.6402     0.64025
   24          H           0.162280        0.8377     0.83772
   25          H           0.165201        0.8348     0.83480
   26          H           0.162966        0.8370     0.83703
 DIPOLE           X         Y         Z       TOTAL
 POINT-CHG.     0.574     1.646    -0.593     1.841
 HYBRID        -0.312     0.241    -0.364     0.537
 SUM            0.261     1.887    -0.957     2.132


          ATOMIC ORBITAL ELECTRON POPULATIONS

     Atom    s        px        py        pz   
    1  C   1.13146   0.97318   0.78796   1.08239
    2  C   1.08777   0.99201   0.96991   0.98418
    3  C   1.08703   1.08372   1.13491   1.18315
    4  C   1.12844   0.86060   0.82231   0.64590
    5  O   1.82119   1.88537   1.32476   1.49731
    6  N   1.68410   1.12137   1.19808   1.49465
    7  C   1.11082   0.85037   0.82544   1.00855
    8  C   1.11845   1.10911   1.15838   1.13529
    9  C   1.07540   0.71006   0.79561   0.74384
   10  O   1.80954   1.61854   1.48782   1.59781
   11  O   1.85063   1.59054   1.30087   1.70714
   12  O   1.85241   1.83930   1.30829   1.45420
   13  C   1.08715   1.18343   1.04349   1.18521
   14  H   0.81934
   15  H   0.86905
   16  H   0.84146
   17  H   0.84011
   18  H   0.83695
   19  H   0.67879
   20  H   0.85488
   21  H   0.78313
   22  H   0.78703
   23  H   0.64025
   24  H   0.83772
   25  H   0.83480
   26  H   0.83703

 **********************
 *                    *
 * JOB ENDED NORMALLY *
 *                    *
 **********************



 TOTAL JOB TIME:             3.32 SECONDS

 == MOPAC DONE ==
