 *******************************************************************************
 ** Site#: 35412        For non-commercial use only    Version 20.225L 64BITS **
 *******************************************************************************
 ** Cite this program as: MOPAC2016, Version: 20.225L, James J. P. Stewart,   **
 ** Stewart Computational Chemistry, web: HTTP://OpenMOPAC.net. Days left: 364**
 *******************************************************************************
 **                                                                           **
 **                                MOPAC2016                                  **
 **                                                                           **
 *******************************************************************************

                              PM6 CALCULATION RESULTS

 *******************************************************************************
 *  CALCULATION DONE:                                Fri Aug 14 20:44:11 2020  *
 *  PM6        - The PM6 Hamiltonian to be used
 *  SINGLET    - SPIN STATE DEFINED AS A SINGLET
 *  OPT        - OPTIMIZE COORDINATES OF ALL ATOMS
 *
 *
 *
 *                 CHARGE ON SYSTEM = 0
 *
 *
 *
 *  PRECISE    - CRITERIA TO BE INCREASED BY 100 TIMES
 *  T=         - A TIME OF 172800.0 SECONDS REQUESTED
 *  DUMP=N     - RESTART FILE WRITTEN EVERY 7200.0 SECONDS REQUESTED
 *  AUX        - OUTPUT AUXILIARY INFORMATION
 *  PRTXYZ     - PRINT CARTESIAN COORDINATES
 *  LARGE      - EXPANDED OUTPUT TO BE PRINTED
 *******************************************************************************
 AUX LARGE CHARGE=0 SINGLET  PM6  OPT PRECISE PRTXYZ
 CN362.pdb
 33
   ATOM   CHEMICAL          X               Y               Z
  NUMBER   SYMBOL      (ANGSTROMS)     (ANGSTROMS)     (ANGSTROMS)
 
     1       C          5.80400000  *  -6.62800000  *   0.13600000  *
     2       C          5.84700000  *  -7.97400000  *   0.13000000  *
     3       C          6.91100000  *  -8.92100000  *  -0.12700000  *
     4       O          8.07100000  *  -8.54600000  *  -0.53600000  *
     5       C          8.94000000  *  -7.98700000  *   0.31800000  *
     6       C          9.34100000  *  -6.70000000  *  -0.30300000  *
     7       N          8.32000000  *  -5.65800000  *  -0.25800000  *
     8       C          6.96600000  *  -5.56200000  *  -0.09100000  *
     9       O          6.64100000  * -10.12700000  *  -0.12900000  *
    10       C          4.36200000  *  -6.10700000  *   0.41600000  *
    11       C          3.30000000  *  -7.22000000  *   0.25900000  *
    12       C          3.91900000  *  -4.81300000  *  -0.31300000  *
    13       O          6.61700000  *  -4.38000000  *  -0.07900000  *
    14       C         10.57000000  *  -6.13000000  *   0.42600000  *
    15       O         10.96800000  *  -4.91400000  *  -0.21100000  *
    16       C         11.73200000  *  -7.14200000  *   0.36200000  *
    17       H          4.89200000  *  -8.44300000  *   0.36500000  *
    18       H          8.46500000  *  -7.81100000  *   1.28300000  *
    19       H          9.80900000  *  -8.63100000  *   0.45200000  *
    20       H          9.60700000  *  -6.88300000  *  -1.34400000  *
    21       H          8.75600000  *  -4.69100000  *  -0.39500000  *
    22       H          4.35300000  *  -5.85300000  *   1.47600000  *
    23       H          2.31100000  *  -6.81100000  *   0.46400000  *
    24       H          3.51100000  *  -8.02600000  *   0.96100000  *
    25       H          3.32800000  *  -7.60900000  *  -0.75900000  *
    26       H          2.89700000  *  -4.56600000  *  -0.02700000  *
    27       H          3.96600000  *  -4.96800000  *  -1.39100000  *
    28       H          4.58200000  *  -3.99400000  *  -0.03500000  *
    29       H         10.31700000  *  -5.93100000  *   1.46700000  *
    30       H         11.21000000  *  -5.10700000  *  -1.21400000  *
    31       H         12.60000000  *  -6.73300000  *   0.88000000  *
    32       H         11.98900000  *  -7.33600000  *  -0.67900000  *
    33       H         11.43000000  *  -8.07400000  *   0.84000000  *
 


          CARTESIAN COORDINATES 

    NO.       ATOM           X           Y           Z

     1         C          5.8040     -6.6280      0.1360
     2         C          5.8470     -7.9740      0.1300
     3         C          6.9110     -8.9210     -0.1270
     4         O          8.0710     -8.5460     -0.5360
     5         C          8.9400     -7.9870      0.3180
     6         C          9.3410     -6.7000     -0.3030
     7         N          8.3200     -5.6580     -0.2580
     8         C          6.9660     -5.5620     -0.0910
     9         O          6.6410    -10.1270     -0.1290
    10         C          4.3620     -6.1070      0.4160
    11         C          3.3000     -7.2200      0.2590
    12         C          3.9190     -4.8130     -0.3130
    13         O          6.6170     -4.3800     -0.0790
    14         C         10.5700     -6.1300      0.4260
    15         O         10.9680     -4.9140     -0.2110
    16         C         11.7320     -7.1420      0.3620
    17         H          4.8920     -8.4430      0.3650
    18         H          8.4650     -7.8110      1.2830
    19         H          9.8090     -8.6310      0.4520
    20         H          9.6070     -6.8830     -1.3440
    21         H          8.7560     -4.6910     -0.3950
    22         H          4.3530     -5.8530      1.4760
    23         H          2.3110     -6.8110      0.4640
    24         H          3.5110     -8.0260      0.9610
    25         H          3.3280     -7.6090     -0.7590
    26         H          2.8970     -4.5660     -0.0270
    27         H          3.9660     -4.9680     -1.3910
    28         H          4.5820     -3.9940     -0.0350
    29         H         10.3170     -5.9310      1.4670
    30         H         11.2100     -5.1070     -1.2140
    31         H         12.6000     -6.7330      0.8800
    32         H         11.9890     -7.3360     -0.6790
    33         H         11.4300     -8.0740      0.8400

 General Reference for PM6:
 "Optimization of Parameters for Semiempirical Methods V: Modification of NDDO Approximations
 and Application to 70 Elements", J. J. P. Stewart, J. Mol. Mod., 13, 1173-1213 (2007)
 URL: https://link.springer.com/article/10.1007/s00894-007-0233-4

           Empirical Formula: C11 H17 N O4  =    33 atoms



      MOLECULAR POINT GROUP   :   C1  


 SINGLET STATE CALCULATION


      RHF CALCULATION, NO. OF DOUBLY OCCUPIED LEVELS = 45


          Geometry optimization using EF

          DIAGONAL MATRIX USED AS START HESSIAN

 CYCLE:     1 TIME:   0.031 TIME LEFT:  2.00D  GRAD.:   240.697 HEAT: -119.5250
 CYCLE:     2 TIME:   0.031 TIME LEFT:  2.00D  GRAD.:   250.995 HEAT: -131.5294
 CYCLE:     3 TIME:   0.039 TIME LEFT:  2.00D  GRAD.:   143.140 HEAT: -136.9058
 CYCLE:     4 TIME:   0.023 TIME LEFT:  2.00D  GRAD.:    76.095 HEAT: -140.9502
 CYCLE:     5 TIME:   0.047 TIME LEFT:  2.00D  GRAD.:    62.175 HEAT: -142.7459
 CYCLE:     6 TIME:   0.023 TIME LEFT:  2.00D  GRAD.:    98.506 HEAT: -143.0151
 CYCLE:     7 TIME:   0.016 TIME LEFT:  2.00D  GRAD.:    83.197 HEAT: -144.1435
 CYCLE:     8 TIME:   0.023 TIME LEFT:  2.00D  GRAD.:    82.327 HEAT: -144.7136
 CYCLE:     9 TIME:   0.016 TIME LEFT:  2.00D  GRAD.:    74.023 HEAT: -145.4541
 CYCLE:    10 TIME:   0.023 TIME LEFT:  2.00D  GRAD.:    84.419 HEAT: -145.5718
 CYCLE:    11 TIME:   0.023 TIME LEFT:  2.00D  GRAD.:    84.180 HEAT: -146.0391
 CYCLE:    12 TIME:   0.031 TIME LEFT:  2.00D  GRAD.:    33.875 HEAT: -147.7340
 CYCLE:    13 TIME:   0.047 TIME LEFT:  2.00D  GRAD.:    29.566 HEAT: -148.0384
 CYCLE:    14 TIME:   0.023 TIME LEFT:  2.00D  GRAD.:    35.770 HEAT: -148.2053
 CYCLE:    15 TIME:   0.023 TIME LEFT:  2.00D  GRAD.:    24.042 HEAT: -148.5302
 CYCLE:    16 TIME:   0.023 TIME LEFT:  2.00D  GRAD.:    25.782 HEAT: -148.8323
 CYCLE:    17 TIME:   0.016 TIME LEFT:  2.00D  GRAD.:    30.017 HEAT: -149.2464
 CYCLE:    18 TIME:   0.023 TIME LEFT:  2.00D  GRAD.:    24.174 HEAT: -149.8786
 CYCLE:    19 TIME:   0.016 TIME LEFT:  2.00D  GRAD.:    33.206 HEAT: -150.3737
 CYCLE:    20 TIME:   0.023 TIME LEFT:  2.00D  GRAD.:    49.819 HEAT: -150.5928
 CYCLE:    21 TIME:   0.023 TIME LEFT:  2.00D  GRAD.:    59.068 HEAT: -150.8228
 CYCLE:    22 TIME:   0.023 TIME LEFT:  2.00D  GRAD.:    42.038 HEAT: -151.4506
 CYCLE:    23 TIME:   0.023 TIME LEFT:  2.00D  GRAD.:    48.075 HEAT: -151.7373
 CYCLE:    24 TIME:   0.031 TIME LEFT:  2.00D  GRAD.:    55.875 HEAT: -152.3998
 CYCLE:    25 TIME:   0.016 TIME LEFT:  2.00D  GRAD.:    43.144 HEAT: -152.7483
 CYCLE:    26 TIME:   0.023 TIME LEFT:  2.00D  GRAD.:    58.230 HEAT: -152.8324
 CYCLE:    27 TIME:   0.039 TIME LEFT:  2.00D  GRAD.:    55.231 HEAT: -153.7609
 CYCLE:    28 TIME:   0.023 TIME LEFT:  2.00D  GRAD.:    35.547 HEAT: -154.7239
 CYCLE:    29 TIME:   0.023 TIME LEFT:  2.00D  GRAD.:    32.398 HEAT: -155.2061
 CYCLE:    30 TIME:   0.023 TIME LEFT:  2.00D  GRAD.:    42.566 HEAT: -155.8828
 CYCLE:    31 TIME:   0.016 TIME LEFT:  2.00D  GRAD.:    38.548 HEAT: -156.8288
 CYCLE:    32 TIME:   0.031 TIME LEFT:  2.00D  GRAD.:    45.248 HEAT: -157.3401
 CYCLE:    33 TIME:   0.016 TIME LEFT:  2.00D  GRAD.:    53.837 HEAT: -157.6223
 CYCLE:    34 TIME:   0.023 TIME LEFT:  2.00D  GRAD.:    37.688 HEAT: -158.4403
 CYCLE:    35 TIME:   0.023 TIME LEFT:  2.00D  GRAD.:    25.863 HEAT: -158.8847
 CYCLE:    36 TIME:   0.023 TIME LEFT:  2.00D  GRAD.:    22.679 HEAT: -159.3598
 CYCLE:    37 TIME:   0.023 TIME LEFT:  2.00D  GRAD.:    25.493 HEAT: -159.9178
 CYCLE:    38 TIME:   0.016 TIME LEFT:  2.00D  GRAD.:    28.390 HEAT: -160.5342
 CYCLE:    39 TIME:   0.023 TIME LEFT:  2.00D  GRAD.:    28.589 HEAT: -160.9122
 CYCLE:    40 TIME:   0.023 TIME LEFT:  2.00D  GRAD.:    39.296 HEAT: -161.1996
 CYCLE:    41 TIME:   0.023 TIME LEFT:  2.00D  GRAD.:    27.376 HEAT: -161.5054
 CYCLE:    42 TIME:   0.023 TIME LEFT:  2.00D  GRAD.:    20.399 HEAT: -161.8247
 CYCLE:    43 TIME:   0.016 TIME LEFT:  2.00D  GRAD.:    17.473 HEAT: -162.1127
 CYCLE:    44 TIME:   0.023 TIME LEFT:  2.00D  GRAD.:    24.033 HEAT: -162.4034
 CYCLE:    45 TIME:   0.023 TIME LEFT:  2.00D  GRAD.:    13.933 HEAT: -162.7730
 CYCLE:    46 TIME:   0.016 TIME LEFT:  2.00D  GRAD.:    25.399 HEAT: -163.0546
 CYCLE:    47 TIME:   0.023 TIME LEFT:  2.00D  GRAD.:    24.830 HEAT: -163.2755
 CYCLE:    48 TIME:   0.016 TIME LEFT:  2.00D  GRAD.:    16.750 HEAT: -163.4899
 CYCLE:    49 TIME:   0.023 TIME LEFT:  2.00D  GRAD.:    12.741 HEAT: -163.7131
 CYCLE:    50 TIME:   0.023 TIME LEFT:  2.00D  GRAD.:    10.148 HEAT: -163.9232
 CYCLE:    51 TIME:   0.016 TIME LEFT:  2.00D  GRAD.:    10.233 HEAT: -164.1601
 CYCLE:    52 TIME:   0.023 TIME LEFT:  2.00D  GRAD.:    11.066 HEAT: -164.2722
 CYCLE:    53 TIME:   0.023 TIME LEFT:  2.00D  GRAD.:    14.686 HEAT: -164.4372
 CYCLE:    54 TIME:   0.023 TIME LEFT:  2.00D  GRAD.:    12.192 HEAT: -164.6309
 CYCLE:    55 TIME:   0.016 TIME LEFT:  2.00D  GRAD.:    14.935 HEAT: -164.8314
 CYCLE:    56 TIME:   0.016 TIME LEFT:  2.00D  GRAD.:    14.391 HEAT: -165.0994
 CYCLE:    57 TIME:   0.023 TIME LEFT:  2.00D  GRAD.:    13.598 HEAT: -165.3717
 CYCLE:    58 TIME:   0.023 TIME LEFT:  2.00D  GRAD.:    11.698 HEAT: -165.6244
 CYCLE:    59 TIME:   0.023 TIME LEFT:  2.00D  GRAD.:    11.857 HEAT: -165.9217
 CYCLE:    60 TIME:   0.023 TIME LEFT:  2.00D  GRAD.:    12.045 HEAT: -166.1095
 CYCLE:    61 TIME:   0.023 TIME LEFT:  2.00D  GRAD.:    13.171 HEAT: -166.2724
 CYCLE:    62 TIME:   0.023 TIME LEFT:  2.00D  GRAD.:    11.388 HEAT: -166.4445
 CYCLE:    63 TIME:   0.023 TIME LEFT:  2.00D  GRAD.:    13.529 HEAT: -166.7184
 CYCLE:    64 TIME:   0.023 TIME LEFT:  2.00D  GRAD.:    14.130 HEAT: -166.9300
 CYCLE:    65 TIME:   0.016 TIME LEFT:  2.00D  GRAD.:    11.327 HEAT: -167.2014
 CYCLE:    66 TIME:   0.023 TIME LEFT:  2.00D  GRAD.:    14.698 HEAT: -167.3499
 CYCLE:    67 TIME:   0.016 TIME LEFT:  2.00D  GRAD.:    15.193 HEAT: -167.5073
 CYCLE:    68 TIME:   0.039 TIME LEFT:  2.00D  GRAD.:    11.630 HEAT: -167.6168
 CYCLE:    69 TIME:   0.023 TIME LEFT:  2.00D  GRAD.:    22.884 HEAT: -167.6268
 CYCLE:    70 TIME:   0.031 TIME LEFT:  2.00D  GRAD.:     7.512 HEAT: -167.8573
 CYCLE:    71 TIME:   0.016 TIME LEFT:  2.00D  GRAD.:     5.385 HEAT: -167.9157
 CYCLE:    72 TIME:   0.023 TIME LEFT:  2.00D  GRAD.:     6.966 HEAT: -167.9994
 CYCLE:    73 TIME:   0.023 TIME LEFT:  2.00D  GRAD.:     8.714 HEAT: -168.0926
 CYCLE:    74 TIME:   0.031 TIME LEFT:  2.00D  GRAD.:     7.164 HEAT: -168.1715
 CYCLE:    75 TIME:   0.023 TIME LEFT:  2.00D  GRAD.:     5.912 HEAT: -168.2598
 CYCLE:    76 TIME:   0.023 TIME LEFT:  2.00D  GRAD.:     5.630 HEAT: -168.3212
 CYCLE:    77 TIME:   0.016 TIME LEFT:  2.00D  GRAD.:     5.758 HEAT: -168.3643
 CYCLE:    78 TIME:   0.023 TIME LEFT:  2.00D  GRAD.:     6.684 HEAT: -168.4336
 CYCLE:    79 TIME:   0.016 TIME LEFT:  2.00D  GRAD.:     7.396 HEAT: -168.5156
 CYCLE:    80 TIME:   0.016 TIME LEFT:  2.00D  GRAD.:     6.994 HEAT: -168.5837
 CYCLE:    81 TIME:   0.023 TIME LEFT:  2.00D  GRAD.:     6.905 HEAT: -168.6634
 CYCLE:    82 TIME:   0.016 TIME LEFT:  2.00D  GRAD.:     6.807 HEAT: -168.7337
 CYCLE:    83 TIME:   0.023 TIME LEFT:  2.00D  GRAD.:     6.083 HEAT: -168.8250
 CYCLE:    84 TIME:   0.023 TIME LEFT:  2.00D  GRAD.:     5.888 HEAT: -168.9111
 CYCLE:    85 TIME:   0.023 TIME LEFT:  2.00D  GRAD.:     5.765 HEAT: -168.9875
 CYCLE:    86 TIME:   0.016 TIME LEFT:  2.00D  GRAD.:     5.833 HEAT: -169.0903
 CYCLE:    87 TIME:   0.023 TIME LEFT:  2.00D  GRAD.:     6.451 HEAT: -169.1910
 CYCLE:    88 TIME:   0.023 TIME LEFT:  2.00D  GRAD.:     7.929 HEAT: -169.2445
 CYCLE:    89 TIME:   0.023 TIME LEFT:  2.00D  GRAD.:     4.720 HEAT: -169.3041
 CYCLE:    90 TIME:   0.016 TIME LEFT:  2.00D  GRAD.:     3.675 HEAT: -169.3284
 CYCLE:    91 TIME:   0.016 TIME LEFT:  2.00D  GRAD.:     3.663 HEAT: -169.3642
 CYCLE:    92 TIME:   0.023 TIME LEFT:  2.00D  GRAD.:     3.525 HEAT: -169.3892
 CYCLE:    93 TIME:   0.016 TIME LEFT:  2.00D  GRAD.:     3.388 HEAT: -169.4181
 CYCLE:    94 TIME:   0.023 TIME LEFT:  2.00D  GRAD.:     3.451 HEAT: -169.4422
 CYCLE:    95 TIME:   0.016 TIME LEFT:  2.00D  GRAD.:     3.874 HEAT: -169.4705
 CYCLE:    96 TIME:   0.016 TIME LEFT:  2.00D  GRAD.:     4.812 HEAT: -169.5049
 CYCLE:    97 TIME:   0.023 TIME LEFT:  2.00D  GRAD.:     4.354 HEAT: -169.5515
 CYCLE:    98 TIME:   0.016 TIME LEFT:  2.00D  GRAD.:     4.216 HEAT: -169.5966
 CYCLE:    99 TIME:   0.023 TIME LEFT:  2.00D  GRAD.:     3.499 HEAT: -169.6250
 CYCLE:   100 TIME:   0.023 TIME LEFT:  2.00D  GRAD.:     3.254 HEAT: -169.6413
 CYCLE:   101 TIME:   0.023 TIME LEFT:  2.00D  GRAD.:     3.078 HEAT: -169.6587
 CYCLE:   102 TIME:   0.023 TIME LEFT:  2.00D  GRAD.:     3.371 HEAT: -169.6782
 CYCLE:   103 TIME:   0.016 TIME LEFT:  2.00D  GRAD.:     3.741 HEAT: -169.6913
 CYCLE:   104 TIME:   0.023 TIME LEFT:  2.00D  GRAD.:     3.105 HEAT: -169.7148
 CYCLE:   105 TIME:   0.023 TIME LEFT:  2.00D  GRAD.:     2.631 HEAT: -169.7371
 CYCLE:   106 TIME:   0.023 TIME LEFT:  2.00D  GRAD.:     2.998 HEAT: -169.7737
 CYCLE:   107 TIME:   0.023 TIME LEFT:  2.00D  GRAD.:     3.535 HEAT: -169.7983
 CYCLE:   108 TIME:   0.016 TIME LEFT:  2.00D  GRAD.:     3.528 HEAT: -169.8339
 CYCLE:   109 TIME:   0.023 TIME LEFT:  2.00D  GRAD.:     3.497 HEAT: -169.8583
 CYCLE:   110 TIME:   0.023 TIME LEFT:  2.00D  GRAD.:     3.285 HEAT: -169.8846
 CYCLE:   111 TIME:   0.023 TIME LEFT:  2.00D  GRAD.:     3.478 HEAT: -169.9095
 CYCLE:   112 TIME:   0.023 TIME LEFT:  2.00D  GRAD.:     3.563 HEAT: -169.9428
 CYCLE:   113 TIME:   0.016 TIME LEFT:  2.00D  GRAD.:     3.405 HEAT: -169.9739
 CYCLE:   114 TIME:   0.023 TIME LEFT:  2.00D  GRAD.:     3.105 HEAT: -170.0070
 CYCLE:   115 TIME:   0.016 TIME LEFT:  2.00D  GRAD.:     3.385 HEAT: -170.0358
 CYCLE:   116 TIME:   0.023 TIME LEFT:  2.00D  GRAD.:     3.385 HEAT: -170.0586
 CYCLE:   117 TIME:   0.016 TIME LEFT:  2.00D  GRAD.:     2.884 HEAT: -170.0834
 CYCLE:   118 TIME:   0.023 TIME LEFT:  2.00D  GRAD.:     2.881 HEAT: -170.1041
 CYCLE:   119 TIME:   0.031 TIME LEFT:  2.00D  GRAD.:     2.825 HEAT: -170.1270
 CYCLE:   120 TIME:   0.023 TIME LEFT:  2.00D  GRAD.:     3.183 HEAT: -170.1577
 CYCLE:   121 TIME:   0.031 TIME LEFT:  2.00D  GRAD.:     3.575 HEAT: -170.2007
 CYCLE:   122 TIME:   0.016 TIME LEFT:  2.00D  GRAD.:     4.030 HEAT: -170.2421
 CYCLE:   123 TIME:   0.031 TIME LEFT:  2.00D  GRAD.:     3.980 HEAT: -170.2777
 CYCLE:   124 TIME:   0.031 TIME LEFT:  2.00D  GRAD.:     6.061 HEAT: -170.3121
 CYCLE:   125 TIME:   0.016 TIME LEFT:  2.00D  GRAD.:     4.625 HEAT: -170.3392
 CYCLE:   126 TIME:   0.023 TIME LEFT:  2.00D  GRAD.:     4.193 HEAT: -170.3701
 CYCLE:   127 TIME:   0.023 TIME LEFT:  2.00D  GRAD.:     5.034 HEAT: -170.4306
 CYCLE:   128 TIME:   0.023 TIME LEFT:  2.00D  GRAD.:     4.593 HEAT: -170.4586
 CYCLE:   129 TIME:   0.023 TIME LEFT:  2.00D  GRAD.:     4.745 HEAT: -170.4838
 CYCLE:   130 TIME:   0.016 TIME LEFT:  2.00D  GRAD.:     4.552 HEAT: -170.5204
 CYCLE:   131 TIME:   0.023 TIME LEFT:  2.00D  GRAD.:     3.680 HEAT: -170.5470
 CYCLE:   132 TIME:   0.016 TIME LEFT:  2.00D  GRAD.:     3.885 HEAT: -170.5662
 CYCLE:   133 TIME:   0.023 TIME LEFT:  2.00D  GRAD.:     2.822 HEAT: -170.5819
 CYCLE:   134 TIME:   0.016 TIME LEFT:  2.00D  GRAD.:     2.290 HEAT: -170.5905
 CYCLE:   135 TIME:   0.023 TIME LEFT:  2.00D  GRAD.:     2.302 HEAT: -170.6016
 CYCLE:   136 TIME:   0.023 TIME LEFT:  2.00D  GRAD.:     2.051 HEAT: -170.6076
 CYCLE:   137 TIME:   0.023 TIME LEFT:  2.00D  GRAD.:     2.842 HEAT: -170.6248
 CYCLE:   138 TIME:   0.016 TIME LEFT:  2.00D  GRAD.:     2.118 HEAT: -170.6345
 CYCLE:   139 TIME:   0.023 TIME LEFT:  2.00D  GRAD.:     2.098 HEAT: -170.6517
 CYCLE:   140 TIME:   0.016 TIME LEFT:  2.00D  GRAD.:     2.464 HEAT: -170.6793
 CYCLE:   141 TIME:   0.023 TIME LEFT:  2.00D  GRAD.:     2.709 HEAT: -170.7068
 CYCLE:   142 TIME:   0.023 TIME LEFT:  2.00D  GRAD.:     2.562 HEAT: -170.7308
 CYCLE:   143 TIME:   0.016 TIME LEFT:  2.00D  GRAD.:     2.236 HEAT: -170.7447
 CYCLE:   144 TIME:   0.023 TIME LEFT:  2.00D  GRAD.:     2.089 HEAT: -170.7564
 CYCLE:   145 TIME:   0.016 TIME LEFT:  2.00D  GRAD.:     1.971 HEAT: -170.7652
 CYCLE:   146 TIME:   0.023 TIME LEFT:  2.00D  GRAD.:     1.751 HEAT: -170.7740
 CYCLE:   147 TIME:   0.023 TIME LEFT:  2.00D  GRAD.:     2.140 HEAT: -170.7818
 CYCLE:   148 TIME:   0.016 TIME LEFT:  2.00D  GRAD.:     2.227 HEAT: -170.7864
 CYCLE:   149 TIME:   0.023 TIME LEFT:  2.00D  GRAD.:     2.513 HEAT: -170.7933
 CYCLE:   150 TIME:   0.016 TIME LEFT:  2.00D  GRAD.:     2.493 HEAT: -170.7999
 CYCLE:   151 TIME:   0.023 TIME LEFT:  2.00D  GRAD.:     1.988 HEAT: -170.8081
 CYCLE:   152 TIME:   0.023 TIME LEFT:  2.00D  GRAD.:     1.919 HEAT: -170.8132
 CYCLE:   153 TIME:   0.016 TIME LEFT:  2.00D  GRAD.:     1.877 HEAT: -170.8206
 CYCLE:   154 TIME:   0.023 TIME LEFT:  2.00D  GRAD.:     1.945 HEAT: -170.8245
 CYCLE:   155 TIME:   0.023 TIME LEFT:  2.00D  GRAD.:     2.266 HEAT: -170.8340
 CYCLE:   156 TIME:   0.023 TIME LEFT:  2.00D  GRAD.:     2.239 HEAT: -170.8408
 CYCLE:   157 TIME:   0.023 TIME LEFT:  2.00D  GRAD.:     3.138 HEAT: -170.8517
 CYCLE:   158 TIME:   0.023 TIME LEFT:  2.00D  GRAD.:     2.983 HEAT: -170.8593
 CYCLE:   159 TIME:   0.023 TIME LEFT:  2.00D  GRAD.:     2.566 HEAT: -170.8729
 CYCLE:   160 TIME:   0.023 TIME LEFT:  2.00D  GRAD.:     2.544 HEAT: -170.8839
 CYCLE:   161 TIME:   0.016 TIME LEFT:  2.00D  GRAD.:     2.612 HEAT: -170.8954
 CYCLE:   162 TIME:   0.023 TIME LEFT:  2.00D  GRAD.:     2.824 HEAT: -170.9037
 CYCLE:   163 TIME:   0.023 TIME LEFT:  2.00D  GRAD.:     2.864 HEAT: -170.9137
 CYCLE:   164 TIME:   0.023 TIME LEFT:  2.00D  GRAD.:     3.801 HEAT: -170.9159
 CYCLE:   165 TIME:   0.023 TIME LEFT:  2.00D  GRAD.:     2.368 HEAT: -170.9300
 CYCLE:   166 TIME:   0.016 TIME LEFT:  2.00D  GRAD.:     2.345 HEAT: -170.9326
 CYCLE:   167 TIME:   0.031 TIME LEFT:  2.00D  GRAD.:     2.441 HEAT: -170.9411
 CYCLE:   168 TIME:   0.031 TIME LEFT:  2.00D  GRAD.:     2.780 HEAT: -170.9428
 CYCLE:   169 TIME:   0.023 TIME LEFT:  2.00D  GRAD.:     1.990 HEAT: -170.9532
 CYCLE:   170 TIME:   0.023 TIME LEFT:  2.00D  GRAD.:     1.831 HEAT: -170.9570
 CYCLE:   171 TIME:   0.039 TIME LEFT:  2.00D  GRAD.:     2.342 HEAT: -170.9541
 CYCLE:   172 TIME:   0.023 TIME LEFT:  2.00D  GRAD.:     2.896 HEAT: -170.9554
 CYCLE:   173 TIME:   0.023 TIME LEFT:  2.00D  GRAD.:     2.145 HEAT: -170.9551
 CYCLE:   174 TIME:   0.016 TIME LEFT:  2.00D  GRAD.:     1.227 HEAT: -170.9587
 CYCLE:   175 TIME:   0.023 TIME LEFT:  2.00D  GRAD.:     0.973 HEAT: -170.9584
 CYCLE:   176 TIME:   0.023 TIME LEFT:  2.00D  GRAD.:     1.274 HEAT: -170.9555
 CYCLE:   177 TIME:   0.023 TIME LEFT:  2.00D  GRAD.:     1.230 HEAT: -170.9541
 CYCLE:   178 TIME:   0.023 TIME LEFT:  2.00D  GRAD.:     1.256 HEAT: -170.9537
 CYCLE:   179 TIME:   0.023 TIME LEFT:  2.00D  GRAD.:     1.197 HEAT: -170.9565
 CYCLE:   180 TIME:   0.023 TIME LEFT:  2.00D  GRAD.:     1.482 HEAT: -170.9595
 CYCLE:   181 TIME:   0.016 TIME LEFT:  2.00D  GRAD.:     1.690 HEAT: -170.9657
 CYCLE:   182 TIME:   0.023 TIME LEFT:  2.00D  GRAD.:     2.230 HEAT: -170.9726
 CYCLE:   183 TIME:   0.023 TIME LEFT:  2.00D  GRAD.:     2.362 HEAT: -170.9788
 CYCLE:   184 TIME:   0.016 TIME LEFT:  2.00D  GRAD.:     2.021 HEAT: -170.9793
 CYCLE:   185 TIME:   0.016 TIME LEFT:  2.00D  GRAD.:     1.667 HEAT: -170.9792
 CYCLE:   186 TIME:   0.023 TIME LEFT:  2.00D  GRAD.:     1.255 HEAT: -170.9800
 CYCLE:   187 TIME:   0.023 TIME LEFT:  2.00D  GRAD.:     1.392 HEAT: -170.9805
 CYCLE:   188 TIME:   0.016 TIME LEFT:  2.00D  GRAD.:     1.616 HEAT: -170.9856
 CYCLE:   189 TIME:   0.023 TIME LEFT:  2.00D  GRAD.:     1.853 HEAT: -170.9868
 CYCLE:   190 TIME:   0.016 TIME LEFT:  2.00D  GRAD.:     1.667 HEAT: -170.9938
 CYCLE:   191 TIME:   0.023 TIME LEFT:  2.00D  GRAD.:     1.526 HEAT: -170.9970
 CYCLE:   192 TIME:   0.023 TIME LEFT:  2.00D  GRAD.:     1.790 HEAT: -171.0008
 CYCLE:   193 TIME:   0.016 TIME LEFT:  2.00D  GRAD.:     1.991 HEAT: -171.0012
 CYCLE:   194 TIME:   0.023 TIME LEFT:  2.00D  GRAD.:     2.293 HEAT: -171.0019
 CYCLE:   195 TIME:   0.023 TIME LEFT:  2.00D  GRAD.:     1.974 HEAT: -170.9991
 CYCLE:   196 TIME:   0.016 TIME LEFT:  2.00D  GRAD.:     1.224 HEAT: -171.0020
 CYCLE:   197 TIME:   0.023 TIME LEFT:  2.00D  GRAD.:     1.129 HEAT: -170.9991
 CYCLE:   198 TIME:   0.016 TIME LEFT:  2.00D  GRAD.:     0.994 HEAT: -170.9985
 CYCLE:   199 TIME:   0.023 TIME LEFT:  2.00D  GRAD.:     0.948 HEAT: -170.9949
 CYCLE:   200 TIME:   0.016 TIME LEFT:  2.00D  GRAD.:     0.992 HEAT: -170.9947
 CYCLE:   201 TIME:   0.023 TIME LEFT:  2.00D  GRAD.:     1.009 HEAT: -170.9941
 CYCLE:   202 TIME:   0.016 TIME LEFT:  2.00D  GRAD.:     1.084 HEAT: -170.9959
 CYCLE:   203 TIME:   0.023 TIME LEFT:  2.00D  GRAD.:     1.250 HEAT: -170.9983
 CYCLE:   204 TIME:   0.023 TIME LEFT:  2.00D  GRAD.:     1.379 HEAT: -171.0028
 CYCLE:   205 TIME:   0.016 TIME LEFT:  2.00D  GRAD.:     1.546 HEAT: -171.0069
 CYCLE:   206 TIME:   0.016 TIME LEFT:  2.00D  GRAD.:     1.626 HEAT: -171.0122
 CYCLE:   207 TIME:   0.023 TIME LEFT:  2.00D  GRAD.:     1.792 HEAT: -171.0109
 CYCLE:   208 TIME:   0.031 TIME LEFT:  2.00D  GRAD.:     2.054 HEAT: -171.0124
 CYCLE:   209 TIME:   0.023 TIME LEFT:  2.00D  GRAD.:     1.620 HEAT: -171.0119
 CYCLE:   210 TIME:   0.016 TIME LEFT:  2.00D  GRAD.:     1.262 HEAT: -171.0117
 CYCLE:   211 TIME:   0.023 TIME LEFT:  2.00D  GRAD.:     1.141 HEAT: -171.0126
 CYCLE:   212 TIME:   0.016 TIME LEFT:  2.00D  GRAD.:     1.304 HEAT: -171.0145
 CYCLE:   213 TIME:   0.023 TIME LEFT:  2.00D  GRAD.:     1.186 HEAT: -171.0172
 CYCLE:   214 TIME:   0.016 TIME LEFT:  2.00D  GRAD.:     1.195 HEAT: -171.0194
 CYCLE:   215 TIME:   0.023 TIME LEFT:  2.00D  GRAD.:     1.282 HEAT: -171.0230
 CYCLE:   216 TIME:   0.039 TIME LEFT:  2.00D  GRAD.:     1.152 HEAT: -171.0241
 CYCLE:   217 TIME:   0.023 TIME LEFT:  2.00D  GRAD.:     1.500 HEAT: -171.0288
 CYCLE:   218 TIME:   0.016 TIME LEFT:  2.00D  GRAD.:     1.329 HEAT: -171.0313
 CYCLE:   219 TIME:   0.023 TIME LEFT:  2.00D  GRAD.:     1.378 HEAT: -171.0357
 CYCLE:   220 TIME:   0.039 TIME LEFT:  2.00D  GRAD.:     1.208 HEAT: -171.0419
 CYCLE:   221 TIME:   0.016 TIME LEFT:  2.00D  GRAD.:     1.207 HEAT: -171.0459
 CYCLE:   222 TIME:   0.023 TIME LEFT:  2.00D  GRAD.:     1.070 HEAT: -171.0512
 CYCLE:   223 TIME:   0.023 TIME LEFT:  2.00D  GRAD.:     1.027 HEAT: -171.0561
 CYCLE:   224 TIME:   0.023 TIME LEFT:  2.00D  GRAD.:     0.984 HEAT: -171.0594
 CYCLE:   225 TIME:   0.016 TIME LEFT:  2.00D  GRAD.:     1.048 HEAT: -171.0617
 CYCLE:   226 TIME:   0.023 TIME LEFT:  2.00D  GRAD.:     1.270 HEAT: -171.0644
 CYCLE:   227 TIME:   0.023 TIME LEFT:  2.00D  GRAD.:     1.316 HEAT: -171.0668
 CYCLE:   228 TIME:   0.016 TIME LEFT:  2.00D  GRAD.:     1.385 HEAT: -171.0708
 CYCLE:   229 TIME:   0.016 TIME LEFT:  2.00D  GRAD.:     1.566 HEAT: -171.0739
 CYCLE:   230 TIME:   0.023 TIME LEFT:  2.00D  GRAD.:     2.001 HEAT: -171.0782
 CYCLE:   231 TIME:   0.023 TIME LEFT:  2.00D  GRAD.:     2.381 HEAT: -171.0821
 CYCLE:   232 TIME:   0.023 TIME LEFT:  2.00D  GRAD.:     1.985 HEAT: -171.0867
 CYCLE:   233 TIME:   0.023 TIME LEFT:  2.00D  GRAD.:     2.439 HEAT: -171.0926
 CYCLE:   234 TIME:   0.016 TIME LEFT:  2.00D  GRAD.:     2.459 HEAT: -171.0956
 CYCLE:   235 TIME:   0.023 TIME LEFT:  2.00D  GRAD.:     2.081 HEAT: -171.0985
 CYCLE:   236 TIME:   0.023 TIME LEFT:  2.00D  GRAD.:     1.474 HEAT: -171.1036
 CYCLE:   237 TIME:   0.016 TIME LEFT:  2.00D  GRAD.:     1.161 HEAT: -171.1072
 CYCLE:   238 TIME:   0.023 TIME LEFT:  2.00D  GRAD.:     0.947 HEAT: -171.1099
 CYCLE:   239 TIME:   0.023 TIME LEFT:  2.00D  GRAD.:     0.856 HEAT: -171.1125
 CYCLE:   240 TIME:   0.016 TIME LEFT:  2.00D  GRAD.:     0.806 HEAT: -171.1145
 CYCLE:   241 TIME:   0.016 TIME LEFT:  2.00D  GRAD.:     0.773 HEAT: -171.1176
 CYCLE:   242 TIME:   0.023 TIME LEFT:  2.00D  GRAD.:     1.009 HEAT: -171.1199
 CYCLE:   243 TIME:   0.016 TIME LEFT:  2.00D  GRAD.:     0.978 HEAT: -171.1213
 CYCLE:   244 TIME:   0.016 TIME LEFT:  2.00D  GRAD.:     0.908 HEAT: -171.1216
 CYCLE:   245 TIME:   0.023 TIME LEFT:  2.00D  GRAD.:     0.776 HEAT: -171.1196
 CYCLE:   246 TIME:   0.023 TIME LEFT:  2.00D  GRAD.:     0.606 HEAT: -171.1179
 CYCLE:   247 TIME:   0.016 TIME LEFT:  2.00D  GRAD.:     0.554 HEAT: -171.1159
 CYCLE:   248 TIME:   0.023 TIME LEFT:  2.00D  GRAD.:     0.520 HEAT: -171.1152
 CYCLE:   249 TIME:   0.016 TIME LEFT:  2.00D  GRAD.:     0.533 HEAT: -171.1139
 CYCLE:   250 TIME:   0.016 TIME LEFT:  2.00D  GRAD.:     0.474 HEAT: -171.1134
 CYCLE:   251 TIME:   0.023 TIME LEFT:  2.00D  GRAD.:     0.455 HEAT: -171.1126
 CYCLE:   252 TIME:   0.016 TIME LEFT:  2.00D  GRAD.:     0.386 HEAT: -171.1123
 CYCLE:   253 TIME:   0.023 TIME LEFT:  2.00D  GRAD.:     0.329 HEAT: -171.1121
 CYCLE:   254 TIME:   0.016 TIME LEFT:  2.00D  GRAD.:     0.281 HEAT: -171.1126
 CYCLE:   255 TIME:   0.023 TIME LEFT:  2.00D  GRAD.:     0.266 HEAT: -171.1136
 CYCLE:   256 TIME:   0.016 TIME LEFT:  2.00D  GRAD.:     0.248 HEAT: -171.1144
 CYCLE:   257 TIME:   0.023 TIME LEFT:  2.00D  GRAD.:     0.199 HEAT: -171.1156
 CYCLE:   258 TIME:   0.023 TIME LEFT:  2.00D  GRAD.:     0.170 HEAT: -171.1158
 CYCLE:   259 TIME:   0.023 TIME LEFT:  2.00D  GRAD.:     0.189 HEAT: -171.1163
 CYCLE:   260 TIME:   0.016 TIME LEFT:  2.00D  GRAD.:     0.202 HEAT: -171.1164
 CYCLE:   261 TIME:   0.016 TIME LEFT:  2.00D  GRAD.:     0.270 HEAT: -171.1168


 HEAT OF FORMATION IS ESSENTIALLY STATIONARY

 -------------------------------------------------------------------------------
 AUX LARGE CHARGE=0 SINGLET  PM6  OPT PRECISE PRTXYZ
 CN362.pdb
 33


     GEOMETRY OPTIMISED USING EIGENVECTOR FOLLOWING (EF).     
     SCF FIELD WAS ACHIEVED                                   


                              PM6 CALCULATION
                                                       MOPAC2016 (Version: 20.225L)
                                                       Fri Aug 14 20:44:17 2020
                                                       No. of days remaining = 364




          FINAL HEAT OF FORMATION =       -171.11680 KCAL/MOL =    -715.95269 KJ/MOL


          TOTAL ENERGY            =      -2924.44048 EV
          ELECTRONIC ENERGY       =     -18969.40724 EV  POINT GROUP:     C1  
          CORE-CORE REPULSION     =      16044.96677 EV
          COSMO AREA              =        246.22 SQUARE ANGSTROMS
          COSMO VOLUME            =        285.95 CUBIC ANGSTROMS

          GRADIENT NORM           =          0.27032 = 0.04706 PER ATOM
          IONIZATION POTENTIAL    =         10.098876 EV
          HOMO LUMO ENERGIES (EV) =        -10.099 -0.553
          NO. OF FILLED LEVELS    =         45
          MOLECULAR WEIGHT        =        227.2596

          MOLECULAR DIMENSIONS (Angstroms)

            Atom       Atom       Distance
            H    32    H    26     8.53479
            O     9    H    31     6.45941
            H    25    H    21     5.12917


          SCF CALCULATIONS        =        267
 
          WALL-CLOCK TIME         =          5.805 SECONDS
          COMPUTATION TIME        =         10.859 SECONDS




   ATOM   CHEMICAL          X               Y               Z
  NUMBER   SYMBOL      (ANGSTROMS)     (ANGSTROMS)     (ANGSTROMS)
 
     1       C          6.06872217  *  -6.64946550  *  -0.16265192  *
     2       C          5.94847134  *  -7.95520221  *  -0.41091636  *
     3       C          6.77096247  *  -8.71538518  *  -1.37867671  *
     4       O          8.12100842  *  -8.88371859  *  -1.05587578  *
     5       C          8.67402064  *  -8.20890255  *   0.08924812  *
     6       C          9.24206297  *  -6.83740385  *  -0.31573786  *
     7       N          8.33287951  *  -5.96712540  *  -1.08726800  *
     8       C          6.95828302  *  -5.75485549  *  -0.98647939  *
     9       O          6.41838451  *  -9.27702791  *  -2.38076887  *
    10       C          5.23411651  *  -5.88693866  *   0.85182572  *
    11       C          4.89096610  *  -6.73585640  *   2.07837747  *
    12       C          3.97428941  *  -5.36609777  *   0.15211964  *
    13       O          6.48672093  *  -4.83322545  *  -1.63821672  *
    14       C          9.74362382  *  -6.05757079  *   0.94434996  *
    15       O         10.36678534  *  -4.85180367  *   0.49216642  *
    16       C         10.70358739  *  -6.86569748  *   1.80483442  *
    17       H          5.19903795  *  -8.57452706  *   0.09620030  *
    18       H          7.94758317  *  -8.15391391  *   0.91683959  *
    19       H          9.49611904  *  -8.89921804  *   0.37532105  *
    20       H         10.12074816  *  -7.03076684  *  -0.99811813  *
    21       H          8.83370147  *  -5.24705553  *  -1.63108157  *
    22       H          5.83116626  *  -5.00100933  *   1.20089133  *
    23       H          4.39183660  *  -6.12518357  *   2.84208528  *
    24       H          5.78368221  *  -7.17140196  *   2.53778920  *
    25       H          4.20399878  *  -7.55528608  *   1.83513772  *
    26       H          3.37816692  *  -4.73519878  *   0.81918244  *
    27       H          3.33157866  *  -6.17971572  *  -0.20122051  *
    28       H          4.24174452  *  -4.75798628  *  -0.72929575  *
    29       H          8.88310396  *  -5.66409905  *   1.53628219  *
    30       H         11.25885512  *  -5.01895110  *   0.12790988  *
    31       H         11.21044216  *  -6.20684439  *   2.52752792  *
    32       H         11.48887939  *  -7.36122096  *   1.22296662  *
    33       H         10.19138682  *  -7.63519704  *   2.39361930  *

                             CARTESIAN COORDINATES

   1    C        6.068722175    -6.649465501    -0.162651921
   2    C        5.948471338    -7.955202214    -0.410916358
   3    C        6.770962466    -8.715385176    -1.378676712
   4    O        8.121008420    -8.883718586    -1.055875778
   5    C        8.674020645    -8.208902551     0.089248125
   6    C        9.242062967    -6.837403855    -0.315737858
   7    N        8.332879506    -5.967125400    -1.087268003
   8    C        6.958283019    -5.754855492    -0.986479387
   9    O        6.418384506    -9.277027907    -2.380768873
  10    C        5.234116515    -5.886938659     0.851825724
  11    C        4.890966101    -6.735856404     2.078377472
  12    C        3.974289414    -5.366097774     0.152119636
  13    O        6.486720930    -4.833225454    -1.638216720
  14    C        9.743623817    -6.057570789     0.944349958
  15    O       10.366785337    -4.851803673     0.492166423
  16    C       10.703587386    -6.865697481     1.804834424
  17    H        5.199037950    -8.574527065     0.096200296
  18    H        7.947583166    -8.153913912     0.916839593
  19    H        9.496119044    -8.899218040     0.375321046
  20    H       10.120748157    -7.030766838    -0.998118131
  21    H        8.833701473    -5.247055535    -1.631081566
  22    H        5.831166259    -5.001009329     1.200891331
  23    H        4.391836604    -6.125183567     2.842085277
  24    H        5.783682213    -7.171401958     2.537789195
  25    H        4.203998784    -7.555286075     1.835137716
  26    H        3.378166921    -4.735198782     0.819182445
  27    H        3.331578656    -6.179715716    -0.201220506
  28    H        4.241744516    -4.757986282    -0.729295751
  29    H        8.883103962    -5.664099049     1.536282192
  30    H       11.258855121    -5.018951096     0.127909877
  31    H       11.210442162    -6.206844393     2.527527919
  32    H       11.488879387    -7.361220960     1.222966622
  33    H       10.191386816    -7.635197044     2.393619299


           Empirical Formula: C11 H17 N O4  =    33 atoms



      MOLECULAR POINT GROUP   :   C1  


                  EIGENVALUES  
 -33.00608 -32.36199 -31.46362 -30.84191 -30.24914 -29.61895 -28.15068 -27.34291
 -26.04545 -24.90904 -24.49562 -23.63999 -22.31364 -21.78799 -20.64372 -19.03051
 -18.75229 -18.08256 -17.46605 -17.21773 -16.71149 -16.34908 -16.19975 -15.90327
 -15.68880 -15.11562 -14.84173 -14.77028 -14.37419 -14.22928 -14.10844 -13.82883
 -13.70107 -13.54787 -13.41972 -12.80316 -12.68768 -12.64035 -12.24828 -11.70803
 -11.41839 -11.26854 -10.90485 -10.64241 -10.09888  -0.55288   0.57669   0.72030
   0.80378   1.29607   1.87098   2.13578   2.57970   2.70245   2.76587   3.08206
   3.32214   3.66389   3.74662   3.99073   4.09974   4.21804   4.35047   4.38964
   4.56010   4.67028   4.75634   4.79912   4.80754   5.07359   5.17442   5.19243
   5.21782   5.30886   5.48103   5.76345   5.79977   5.84122   5.91286   6.27935
   6.74021


              NET ATOMIC CHARGES AND DIPOLE CONTRIBUTIONS

  ATOM NO.   TYPE          CHARGE      No. of ELECS.   s-Pop       p-Pop       
    1          C          -0.009344        4.0093     1.13281     2.87654
    2          C          -0.360445        4.3604     1.12656     3.23388
    3          C           0.647850        3.3521     1.08643     2.26572
    4          O          -0.438532        6.4385     1.85019     4.58834
    5          C          -0.042211        4.0422     1.10968     2.93253
    6          C          -0.039172        4.0392     1.11536     2.92381
    7          N          -0.487332        5.4873     1.50987     3.97746
    8          C           0.551167        3.4488     1.07965     2.36918
    9          O          -0.424207        6.4242     1.85105     4.57316
   10          C           0.002424        3.9976     1.07742     2.92015
   11          C          -0.493608        4.4936     1.08763     3.40598
   12          C          -0.490537        4.4905     1.08859     3.40195
   13          O          -0.516830        6.5168     1.85875     4.65808
   14          C           0.173921        3.8261     1.10584     2.72024
   15          O          -0.549357        6.5494     1.81826     4.73110
   16          C          -0.569386        4.5694     1.09627     3.47311
   17          H           0.204585        0.7954     0.79542
   18          H           0.138983        0.8610     0.86102
   19          H           0.158794        0.8412     0.84121
   20          H           0.158835        0.8412     0.84116
   21          H           0.294928        0.7051     0.70507
   22          H           0.135031        0.8650     0.86497
   23          H           0.161924        0.8381     0.83808
   24          H           0.148348        0.8517     0.85165
   25          H           0.158829        0.8412     0.84117
   26          H           0.156785        0.8432     0.84322
   27          H           0.159223        0.8408     0.84078
   28          H           0.184576        0.8154     0.81542
   29          H           0.146697        0.8533     0.85330
   30          H           0.311800        0.6882     0.68820
   31          H           0.185874        0.8141     0.81413
   32          H           0.168678        0.8313     0.83132
   33          H           0.171705        0.8283     0.82829
 DIPOLE           X         Y         Z       TOTAL
 POINT-CHG.     2.358    -0.845     7.254     7.674
 HYBRID         0.555     0.076    -0.637     0.848
 SUM            2.912    -0.768     6.616     7.270


          ATOMIC ORBITAL ELECTRON POPULATIONS

     Atom    s        px        py        pz   
    1  C   1.13281   0.95404   0.96559   0.95690
    2  C   1.12656   1.10000   1.04561   1.08827
    3  C   1.08643   0.75703   0.72578   0.78291
    4  O   1.85019   1.40309   1.67609   1.50915
    5  C   1.10968   1.06425   0.97041   0.89787
    6  C   1.11536   0.98412   0.92952   1.01017
    7  N   1.50987   1.12124   1.38261   1.47361
    8  C   1.07965   0.79810   0.79618   0.77489
    9  O   1.85105   1.73950   1.48407   1.34960
   10  C   1.07742   0.98272   1.00961   0.92783
   11  C   1.08763   1.16857   1.14620   1.09120
   12  C   1.08859   1.07191   1.16971   1.16033
   13  O   1.85875   1.74943   1.40703   1.50163
   14  C   1.10584   0.96294   0.82318   0.93411
   15  O   1.81826   1.45044   1.43216   1.84850
   16  C   1.09627   1.14763   1.16630   1.15918
   17  H   0.79542
   18  H   0.86102
   19  H   0.84121
   20  H   0.84116
   21  H   0.70507
   22  H   0.86497
   23  H   0.83808
   24  H   0.85165
   25  H   0.84117
   26  H   0.84322
   27  H   0.84078
   28  H   0.81542
   29  H   0.85330
   30  H   0.68820
   31  H   0.81413
   32  H   0.83132
   33  H   0.82829

 **********************
 *                    *
 * JOB ENDED NORMALLY *
 *                    *
 **********************



 TOTAL JOB TIME:             5.85 SECONDS

 == MOPAC DONE ==
