 *******************************************************************************
 ** Site#: 35412        For non-commercial use only    Version 20.225L 64BITS **
 *******************************************************************************
 ** Cite this program as: MOPAC2016, Version: 20.225L, James J. P. Stewart,   **
 ** Stewart Computational Chemistry, web: HTTP://OpenMOPAC.net. Days left: 364**
 *******************************************************************************
 **                                                                           **
 **                                MOPAC2016                                  **
 **                                                                           **
 *******************************************************************************

                              PM6 CALCULATION RESULTS

 *******************************************************************************
 *  CALCULATION DONE:                                Fri Aug 14 20:44:26 2020  *
 *  PM6        - The PM6 Hamiltonian to be used
 *  SINGLET    - SPIN STATE DEFINED AS A SINGLET
 *  OPT        - OPTIMIZE COORDINATES OF ALL ATOMS
 *
 *
 *
 *                 CHARGE ON SYSTEM = 0
 *
 *
 *
 *  PRECISE    - CRITERIA TO BE INCREASED BY 100 TIMES
 *  T=         - A TIME OF 172800.0 SECONDS REQUESTED
 *  DUMP=N     - RESTART FILE WRITTEN EVERY 7200.0 SECONDS REQUESTED
 *  AUX        - OUTPUT AUXILIARY INFORMATION
 *  PRTXYZ     - PRINT CARTESIAN COORDINATES
 *  LARGE      - EXPANDED OUTPUT TO BE PRINTED
 *******************************************************************************
 AUX LARGE CHARGE=0 SINGLET  PM6  OPT PRECISE PRTXYZ
 CN395.pdb
 45
   ATOM   CHEMICAL          X               Y               Z
  NUMBER   SYMBOL      (ANGSTROMS)     (ANGSTROMS)     (ANGSTROMS)
 
     1       C          3.61100000  *  -5.72900000  *  -0.63000000  *
     2       C          3.19100000  *  -7.04800000  *  -0.63100000  *
     3       C          4.01800000  *  -8.02900000  *  -0.10900000  *
     4       C          5.26800000  *  -7.70500000  *   0.41800000  *
     5       C          5.69400000  *  -6.36300000  *   0.40200000  *
     6       C          4.85500000  *  -5.39000000  *  -0.12100000  *
     7       C          6.08800000  *  -8.83300000  *   0.98800000  *
     8       O          7.39100000  *  -8.63000000  *   1.43200000  *
     9       C          8.21900000  *  -6.08100000  *  -0.01600000  *
    10       C          7.02800000  *  -5.87800000  *   0.97500000  *
    11       O          5.62100000  *  -9.97700000  *   1.06900000  *
    12       O          3.58100000  *  -9.33200000  *  -0.11700000  *
    13       C          9.50400000  *  -5.63100000  *   0.68900000  *
    14       O          2.79000000  *  -4.75600000  *  -1.12600000  *
    15       O          8.09900000  *  -5.31100000  *  -1.23500000  *
    16       C         10.69200000  *  -5.85800000  *  -0.25400000  *
    17       C         11.98300000  *  -5.41900000  *   0.44200000  *
    18       C         13.16500000  *  -5.65100000  *  -0.50600000  *
    19       C         14.46200000  *  -5.21900000  *   0.18800000  *
    20       C         15.64300000  *  -5.45400000  *  -0.76100000  *
    21       C         16.94200000  *  -5.02200000  *  -0.06500000  *
    22       H          2.24000000  *  -7.30700000  *  -1.02300000  *
    23       H          5.16700000  *  -4.38400000  *  -0.12100000  *
    24       H          7.78900000  *  -9.48500000  *   1.76800000  *
    25       H          8.29600000  *  -7.15300000  *  -0.26500000  *
    26       H          6.96600000  *  -4.81500000  *   1.22200000  *
    27       H          7.25700000  *  -6.47600000  *   1.86200000  *
    28       H          2.67600000  *  -9.39300000  *  -0.52200000  *
    29       H          9.43800000  *  -4.55900000  *   0.94400000  *
    30       H          9.64100000  *  -6.22200000  *   1.60800000  *
    31       H          1.93500000  *  -5.15600000  *  -1.45100000  *
    32       H          8.02200000  *  -4.31100000  *  -1.04700000  *
    33       H         10.76000000  *  -6.92400000  *  -0.51000000  *
    34       H         10.54800000  *  -5.27100000  *  -1.17000000  *
    35       H         11.92100000  *  -4.35200000  *   0.69800000  *
    36       H         12.12500000  *  -6.01000000  *   1.35800000  *
    37       H         13.22300000  *  -6.71800000  *  -0.76300000  *
    38       H         13.02600000  *  -5.06000000  *  -1.42200000  *
    39       H         14.40400000  *  -4.15200000  *   0.44500000  *
    40       H         14.60300000  *  -5.81100000  *   1.10400000  *
    41       H         15.70000000  *  -6.52200000  *  -1.01800000  *
    42       H         15.50100000  *  -4.86300000  *  -1.67700000  *
    43       H         17.79300000  *  -5.18900000  *  -0.74200000  *
    44       H         17.08000000  *  -5.61400000  *   0.85100000  *
    45       H         16.88100000  *  -3.95500000  *   0.19300000  *
 


          CARTESIAN COORDINATES 

    NO.       ATOM           X           Y           Z

     1         C          3.6110     -5.7290     -0.6300
     2         C          3.1910     -7.0480     -0.6310
     3         C          4.0180     -8.0290     -0.1090
     4         C          5.2680     -7.7050      0.4180
     5         C          5.6940     -6.3630      0.4020
     6         C          4.8550     -5.3900     -0.1210
     7         C          6.0880     -8.8330      0.9880
     8         O          7.3910     -8.6300      1.4320
     9         C          8.2190     -6.0810     -0.0160
    10         C          7.0280     -5.8780      0.9750
    11         O          5.6210     -9.9770      1.0690
    12         O          3.5810     -9.3320     -0.1170
    13         C          9.5040     -5.6310      0.6890
    14         O          2.7900     -4.7560     -1.1260
    15         O          8.0990     -5.3110     -1.2350
    16         C         10.6920     -5.8580     -0.2540
    17         C         11.9830     -5.4190      0.4420
    18         C         13.1650     -5.6510     -0.5060
    19         C         14.4620     -5.2190      0.1880
    20         C         15.6430     -5.4540     -0.7610
    21         C         16.9420     -5.0220     -0.0650
    22         H          2.2400     -7.3070     -1.0230
    23         H          5.1670     -4.3840     -0.1210
    24         H          7.7890     -9.4850      1.7680
    25         H          8.2960     -7.1530     -0.2650
    26         H          6.9660     -4.8150      1.2220
    27         H          7.2570     -6.4760      1.8620
    28         H          2.6760     -9.3930     -0.5220
    29         H          9.4380     -4.5590      0.9440
    30         H          9.6410     -6.2220      1.6080
    31         H          1.9350     -5.1560     -1.4510
    32         H          8.0220     -4.3110     -1.0470
    33         H         10.7600     -6.9240     -0.5100
    34         H         10.5480     -5.2710     -1.1700
    35         H         11.9210     -4.3520      0.6980
    36         H         12.1250     -6.0100      1.3580
    37         H         13.2230     -6.7180     -0.7630
    38         H         13.0260     -5.0600     -1.4220
    39         H         14.4040     -4.1520      0.4450
    40         H         14.6030     -5.8110      1.1040
    41         H         15.7000     -6.5220     -1.0180
    42         H         15.5010     -4.8630     -1.6770
    43         H         17.7930     -5.1890     -0.7420
    44         H         17.0800     -5.6140      0.8510
    45         H         16.8810     -3.9550      0.1930

 General Reference for PM6:
 "Optimization of Parameters for Semiempirical Methods V: Modification of NDDO Approximations
 and Application to 70 Elements", J. J. P. Stewart, J. Mol. Mod., 13, 1173-1213 (2007)
 URL: https://link.springer.com/article/10.1007/s00894-007-0233-4

           Empirical Formula: C16 H24 O5  =    45 atoms



      MOLECULAR POINT GROUP   :   C1  


 SINGLET STATE CALCULATION


      RHF CALCULATION, NO. OF DOUBLY OCCUPIED LEVELS = 59


          Geometry optimization using L-BFGS
 CYCLE:     1 TIME:   0.055 TIME LEFT:  2.00D  GRAD.:   138.356 HEAT: -234.2300
 CYCLE:     2 TIME:   0.039 TIME LEFT:  2.00D  GRAD.:   135.810 HEAT: -234.4197
 CYCLE:     3 TIME:   0.031 TIME LEFT:  2.00D  GRAD.:    44.985 HEAT: -240.9992
 CYCLE:     4 TIME:   0.039 TIME LEFT:  2.00D  GRAD.:   135.850 HEAT: -234.4199
 CYCLE:     5 TIME:   0.031 TIME LEFT:  2.00D  GRAD.:    45.014 HEAT: -240.9991
 CYCLE:     6 TIME:   0.031 TIME LEFT:  2.00D  GRAD.:    39.000 HEAT: -242.0026
 CYCLE:     7 TIME:   0.031 TIME LEFT:  2.00D  GRAD.:    45.666 HEAT: -244.1178
 CYCLE:     8 TIME:   0.031 TIME LEFT:  2.00D  GRAD.:    78.252 HEAT: -244.2061
 CYCLE:     9 TIME:   0.031 TIME LEFT:  2.00D  GRAD.:    21.486 HEAT: -245.1217
 CYCLE:    10 TIME:   0.031 TIME LEFT:  2.00D  GRAD.:    15.354 HEAT: -245.3087
 CYCLE:    11 TIME:   0.031 TIME LEFT:  2.00D  GRAD.:    18.639 HEAT: -245.6615
 CYCLE:    12 TIME:   0.031 TIME LEFT:  2.00D  GRAD.:    19.040 HEAT: -245.9613
 CYCLE:    13 TIME:   0.031 TIME LEFT:  2.00D  GRAD.:    40.607 HEAT: -246.0755
 CYCLE:    14 TIME:   0.039 TIME LEFT:  2.00D  GRAD.:    11.975 HEAT: -246.4473
 CYCLE:    15 TIME:   0.031 TIME LEFT:  2.00D  GRAD.:    11.683 HEAT: -246.5494
 CYCLE:    16 TIME:   0.031 TIME LEFT:  2.00D  GRAD.:    13.678 HEAT: -246.7592
 CYCLE:    17 TIME:   0.039 TIME LEFT:  2.00D  GRAD.:    16.414 HEAT: -247.0009
 CYCLE:    18 TIME:   0.047 TIME LEFT:  2.00D  GRAD.:    30.515 HEAT: -246.9312
 CYCLE:    19 TIME:   0.039 TIME LEFT:  2.00D  GRAD.:     5.472 HEAT: -247.1587
 CYCLE:    20 TIME:   0.047 TIME LEFT:  2.00D  GRAD.:     4.432 HEAT: -247.1763
 CYCLE:    21 TIME:   0.047 TIME LEFT:  2.00D  GRAD.:     5.978 HEAT: -247.2134
 CYCLE:    22 TIME:   0.055 TIME LEFT:  2.00D  GRAD.:     9.570 HEAT: -247.2388
 CYCLE:    23 TIME:   0.031 TIME LEFT:  2.00D  GRAD.:     4.592 HEAT: -247.2650
 CYCLE:    24 TIME:   0.031 TIME LEFT:  2.00D  GRAD.:     3.198 HEAT: -247.2811
 CYCLE:    25 TIME:   0.031 TIME LEFT:  2.00D  GRAD.:     3.767 HEAT: -247.2920
 CYCLE:    26 TIME:   0.055 TIME LEFT:  2.00D  GRAD.:     5.818 HEAT: -247.3135
 CYCLE:    27 TIME:   0.031 TIME LEFT:  2.00D  GRAD.:     9.754 HEAT: -247.3208
 CYCLE:    28 TIME:   0.031 TIME LEFT:  2.00D  GRAD.:     3.227 HEAT: -247.3379
 CYCLE:    29 TIME:   0.023 TIME LEFT:  2.00D  GRAD.:     2.607 HEAT: -247.3444
 CYCLE:    30 TIME:   0.031 TIME LEFT:  2.00D  GRAD.:     3.330 HEAT: -247.3518
 CYCLE:    31 TIME:   0.031 TIME LEFT:  2.00D  GRAD.:     3.381 HEAT: -247.3648
 CYCLE:    32 TIME:   0.031 TIME LEFT:  2.00D  GRAD.:     5.720 HEAT: -247.3787
 CYCLE:    33 TIME:   0.023 TIME LEFT:  2.00D  GRAD.:     4.739 HEAT: -247.3834
 CYCLE:    34 TIME:   0.031 TIME LEFT:  2.00D  GRAD.:     1.440 HEAT: -247.3901
 CYCLE:    35 TIME:   0.023 TIME LEFT:  2.00D  GRAD.:     1.267 HEAT: -247.3916
 CYCLE:    36 TIME:   0.039 TIME LEFT:  2.00D  GRAD.:     2.079 HEAT: -247.3956
 CYCLE:    37 TIME:   0.031 TIME LEFT:  2.00D  GRAD.:     3.020 HEAT: -247.3995
 CYCLE:    38 TIME:   0.031 TIME LEFT:  2.00D  GRAD.:     1.999 HEAT: -247.4034
 CYCLE:    39 TIME:   0.031 TIME LEFT:  2.00D  GRAD.:     1.721 HEAT: -247.4077
 CYCLE:    40 TIME:   0.031 TIME LEFT:  2.00D  GRAD.:     2.014 HEAT: -247.4102
 CYCLE:    41 TIME:   0.031 TIME LEFT:  2.00D  GRAD.:     2.114 HEAT: -247.4139
 CYCLE:    42 TIME:   0.031 TIME LEFT:  2.00D  GRAD.:     5.481 HEAT: -247.4162
 CYCLE:    43 TIME:   0.031 TIME LEFT:  2.00D  GRAD.:     1.840 HEAT: -247.4230
 CYCLE:    44 TIME:   0.031 TIME LEFT:  2.00D  GRAD.:     1.194 HEAT: -247.4244
 CYCLE:    45 TIME:   0.039 TIME LEFT:  2.00D  GRAD.:     1.208 HEAT: -247.4264
 CYCLE:    46 TIME:   0.039 TIME LEFT:  2.00D  GRAD.:     2.417 HEAT: -247.4284
 CYCLE:    47 TIME:   0.031 TIME LEFT:  2.00D  GRAD.:     1.361 HEAT: -247.4306
 CYCLE:    48 TIME:   0.039 TIME LEFT:  2.00D  GRAD.:     1.154 HEAT: -247.4326
 CYCLE:    49 TIME:   0.031 TIME LEFT:  2.00D  GRAD.:     1.490 HEAT: -247.4348
 CYCLE:    50 TIME:   0.031 TIME LEFT:  2.00D  GRAD.:     2.455 HEAT: -247.4363
 CYCLE:    51 TIME:   0.031 TIME LEFT:  2.00D  GRAD.:     1.378 HEAT: -247.4385
 CYCLE:    52 TIME:   0.031 TIME LEFT:  2.00D  GRAD.:     1.021 HEAT: -247.4399
 CYCLE:    53 TIME:   0.055 TIME LEFT:  2.00D  GRAD.:     1.179 HEAT: -247.4410
 CYCLE:    54 TIME:   0.031 TIME LEFT:  2.00D  GRAD.:     2.143 HEAT: -247.4430
 CYCLE:    55 TIME:   0.039 TIME LEFT:  2.00D  GRAD.:     1.371 HEAT: -247.4452
 CYCLE:    56 TIME:   0.031 TIME LEFT:  2.00D  GRAD.:     1.235 HEAT: -247.4476
 CYCLE:    57 TIME:   0.031 TIME LEFT:  2.00D  GRAD.:     1.910 HEAT: -247.4499
 CYCLE:    58 TIME:   0.047 TIME LEFT:  2.00D  GRAD.:     1.967 HEAT: -247.4520
 CYCLE:    59 TIME:   0.031 TIME LEFT:  2.00D  GRAD.:     1.607 HEAT: -247.4542
 CYCLE:    60 TIME:   0.039 TIME LEFT:  2.00D  GRAD.:     1.709 HEAT: -247.4579
 CYCLE:    61 TIME:   0.031 TIME LEFT:  2.00D  GRAD.:     1.957 HEAT: -247.4611
 CYCLE:    62 TIME:   0.031 TIME LEFT:  2.00D  GRAD.:     2.011 HEAT: -247.4649
 CYCLE:    63 TIME:   0.031 TIME LEFT:  2.00D  GRAD.:     2.213 HEAT: -247.4679
 CYCLE:    64 TIME:   0.031 TIME LEFT:  2.00D  GRAD.:     1.720 HEAT: -247.4709
 CYCLE:    65 TIME:   0.031 TIME LEFT:  2.00D  GRAD.:     1.547 HEAT: -247.4738
 CYCLE:    66 TIME:   0.031 TIME LEFT:  2.00D  GRAD.:     2.007 HEAT: -247.4769
 CYCLE:    67 TIME:   0.031 TIME LEFT:  2.00D  GRAD.:     2.038 HEAT: -247.4791
 CYCLE:    68 TIME:   0.031 TIME LEFT:  2.00D  GRAD.:     1.307 HEAT: -247.4809
 CYCLE:    69 TIME:   0.023 TIME LEFT:  2.00D  GRAD.:     1.542 HEAT: -247.4830
 CYCLE:    70 TIME:   0.031 TIME LEFT:  2.00D  GRAD.:     1.996 HEAT: -247.4861
 CYCLE:    71 TIME:   0.031 TIME LEFT:  2.00D  GRAD.:     2.556 HEAT: -247.4903
 CYCLE:    72 TIME:   0.031 TIME LEFT:  2.00D  GRAD.:     2.461 HEAT: -247.4941
 CYCLE:    73 TIME:   0.031 TIME LEFT:  2.00D  GRAD.:     1.565 HEAT: -247.4970
 CYCLE:    74 TIME:   0.039 TIME LEFT:  2.00D  GRAD.:     1.674 HEAT: -247.5000
 CYCLE:    75 TIME:   0.031 TIME LEFT:  2.00D  GRAD.:     2.496 HEAT: -247.5041
 CYCLE:    76 TIME:   0.039 TIME LEFT:  2.00D  GRAD.:     2.552 HEAT: -247.5075
 CYCLE:    77 TIME:   0.031 TIME LEFT:  2.00D  GRAD.:     1.270 HEAT: -247.5100
 CYCLE:    78 TIME:   0.039 TIME LEFT:  2.00D  GRAD.:     1.268 HEAT: -247.5115
 CYCLE:    79 TIME:   0.039 TIME LEFT:  2.00D  GRAD.:     1.703 HEAT: -247.5141
 CYCLE:    80 TIME:   0.023 TIME LEFT:  2.00D  GRAD.:     3.503 HEAT: -247.5164
 CYCLE:    81 TIME:   0.031 TIME LEFT:  2.00D  GRAD.:     1.526 HEAT: -247.5199
 CYCLE:    82 TIME:   0.031 TIME LEFT:  2.00D  GRAD.:     1.509 HEAT: -247.5223
 CYCLE:    83 TIME:   0.031 TIME LEFT:  2.00D  GRAD.:     1.724 HEAT: -247.5253
 CYCLE:    84 TIME:   0.039 TIME LEFT:  2.00D  GRAD.:     2.704 HEAT: -247.5294
 CYCLE:    85 TIME:   0.047 TIME LEFT:  2.00D  GRAD.:     3.187 HEAT: -247.5320
 CYCLE:    86 TIME:   0.031 TIME LEFT:  2.00D  GRAD.:     1.372 HEAT: -247.5349
 CYCLE:    87 TIME:   0.031 TIME LEFT:  2.00D  GRAD.:     1.434 HEAT: -247.5367
 CYCLE:    88 TIME:   0.031 TIME LEFT:  2.00D  GRAD.:     2.192 HEAT: -247.5387
 CYCLE:    89 TIME:   0.031 TIME LEFT:  2.00D  GRAD.:     1.779 HEAT: -247.5414
 CYCLE:    90 TIME:   0.055 TIME LEFT:  2.00D  GRAD.:     1.529 HEAT: -247.5450
 CYCLE:    91 TIME:   0.023 TIME LEFT:  2.00D  GRAD.:     2.066 HEAT: -247.5480
 CYCLE:    92 TIME:   0.031 TIME LEFT:  2.00D  GRAD.:     1.572 HEAT: -247.5508
 CYCLE:    93 TIME:   0.031 TIME LEFT:  2.00D  GRAD.:     1.569 HEAT: -247.5543
 CYCLE:    94 TIME:   0.031 TIME LEFT:  2.00D  GRAD.:     2.373 HEAT: -247.5584
 CYCLE:    95 TIME:   0.031 TIME LEFT:  2.00D  GRAD.:     2.120 HEAT: -247.5634
 CYCLE:    96 TIME:   0.031 TIME LEFT:  2.00D  GRAD.:     1.786 HEAT: -247.5676
 CYCLE:    97 TIME:   0.039 TIME LEFT:  2.00D  GRAD.:     2.087 HEAT: -247.5727
 CYCLE:    98 TIME:   0.031 TIME LEFT:  2.00D  GRAD.:     2.557 HEAT: -247.5768
 CYCLE:    99 TIME:   0.039 TIME LEFT:  2.00D  GRAD.:     2.176 HEAT: -247.5826
 CYCLE:   100 TIME:   0.031 TIME LEFT:  2.00D  GRAD.:     2.922 HEAT: -247.5865
 CYCLE:   101 TIME:   0.031 TIME LEFT:  2.00D  GRAD.:     5.670 HEAT: -247.5861
 CYCLE:   102 TIME:   0.031 TIME LEFT:  2.00D  GRAD.:     1.769 HEAT: -247.5920
 CYCLE:   103 TIME:   0.031 TIME LEFT:  2.00D  GRAD.:     1.403 HEAT: -247.5937
 CYCLE:   104 TIME:   0.023 TIME LEFT:  2.00D  GRAD.:     2.144 HEAT: -247.5975
 CYCLE:   105 TIME:   0.031 TIME LEFT:  2.00D  GRAD.:     2.757 HEAT: -247.6008
 CYCLE:   106 TIME:   0.031 TIME LEFT:  2.00D  GRAD.:     4.704 HEAT: -247.6024
 CYCLE:   107 TIME:   0.031 TIME LEFT:  2.00D  GRAD.:     2.286 HEAT: -247.6089
 CYCLE:   108 TIME:   0.031 TIME LEFT:  2.00D  GRAD.:     1.488 HEAT: -247.6117
 CYCLE:   109 TIME:   0.031 TIME LEFT:  2.00D  GRAD.:     2.691 HEAT: -247.6142
 CYCLE:   110 TIME:   0.031 TIME LEFT:  2.00D  GRAD.:     2.841 HEAT: -247.6185
 CYCLE:   111 TIME:   0.031 TIME LEFT:  2.00D  GRAD.:     2.083 HEAT: -247.6247
 CYCLE:   112 TIME:   0.031 TIME LEFT:  2.00D  GRAD.:     2.907 HEAT: -247.6317
 CYCLE:   113 TIME:   0.031 TIME LEFT:  2.00D  GRAD.:     4.119 HEAT: -247.6376
 CYCLE:   114 TIME:   0.031 TIME LEFT:  2.00D  GRAD.:     2.774 HEAT: -247.6426
 CYCLE:   115 TIME:   0.031 TIME LEFT:  2.00D  GRAD.:     5.816 HEAT: -247.6455
 CYCLE:   116 TIME:   0.023 TIME LEFT:  2.00D  GRAD.:     3.591 HEAT: -247.6548
 CYCLE:   117 TIME:   0.039 TIME LEFT:  2.00D  GRAD.:     2.212 HEAT: -247.6602
 CYCLE:   118 TIME:   0.055 TIME LEFT:  2.00D  GRAD.:     3.260 HEAT: -247.6686
 CYCLE:   119 TIME:   0.023 TIME LEFT:  2.00D  GRAD.:     4.352 HEAT: -247.6783
 CYCLE:   120 TIME:   0.031 TIME LEFT:  2.00D  GRAD.:     4.878 HEAT: -247.6952
 CYCLE:   121 TIME:   0.039 TIME LEFT:  2.00D  GRAD.:     8.285 HEAT: -247.6980
 CYCLE:   122 TIME:   0.047 TIME LEFT:  2.00D  GRAD.:     3.218 HEAT: -247.7129
 CYCLE:   123 TIME:   0.031 TIME LEFT:  2.00D  GRAD.:     3.264 HEAT: -247.7147
 CYCLE:   124 TIME:   0.031 TIME LEFT:  2.00D  GRAD.:     2.944 HEAT: -247.7237
 CYCLE:   125 TIME:   0.039 TIME LEFT:  2.00D  GRAD.:     4.195 HEAT: -247.7337
 CYCLE:   126 TIME:   0.039 TIME LEFT:  2.00D  GRAD.:     3.194 HEAT: -247.7447
 CYCLE:   127 TIME:   0.023 TIME LEFT:  2.00D  GRAD.:     3.137 HEAT: -247.7592
 CYCLE:   128 TIME:   0.031 TIME LEFT:  2.00D  GRAD.:     5.275 HEAT: -247.7724
 CYCLE:   129 TIME:   0.031 TIME LEFT:  2.00D  GRAD.:     3.783 HEAT: -247.7872
 CYCLE:   130 TIME:   0.031 TIME LEFT:  2.00D  GRAD.:     4.904 HEAT: -247.7963
 CYCLE:   131 TIME:   0.031 TIME LEFT:  2.00D  GRAD.:     5.197 HEAT: -247.8106
 CYCLE:   132 TIME:   0.031 TIME LEFT:  2.00D  GRAD.:     3.503 HEAT: -247.8258
 CYCLE:   133 TIME:   0.031 TIME LEFT:  2.00D  GRAD.:     4.057 HEAT: -247.8478
 CYCLE:   134 TIME:   0.031 TIME LEFT:  2.00D  GRAD.:     4.574 HEAT: -247.8661
 CYCLE:   135 TIME:   0.023 TIME LEFT:  2.00D  GRAD.:     9.205 HEAT: -247.8839
 CYCLE:   136 TIME:   0.039 TIME LEFT:  2.00D  GRAD.:     4.359 HEAT: -247.9092
 CYCLE:   137 TIME:   0.031 TIME LEFT:  2.00D  GRAD.:     2.979 HEAT: -247.9193
 CYCLE:   138 TIME:   0.031 TIME LEFT:  2.00D  GRAD.:     7.900 HEAT: -247.9238
 CYCLE:   139 TIME:   0.031 TIME LEFT:  2.00D  GRAD.:     4.455 HEAT: -247.9449
 CYCLE:   140 TIME:   0.031 TIME LEFT:  2.00D  GRAD.:     3.428 HEAT: -247.9595
 CYCLE:   141 TIME:   0.031 TIME LEFT:  2.00D  GRAD.:     3.192 HEAT: -247.9790
 CYCLE:   142 TIME:   0.031 TIME LEFT:  2.00D  GRAD.:     5.121 HEAT: -247.9915
 CYCLE:   143 TIME:   0.039 TIME LEFT:  2.00D  GRAD.:     6.118 HEAT: -248.0037
 CYCLE:   144 TIME:   0.031 TIME LEFT:  2.00D  GRAD.:     2.988 HEAT: -248.0158
 CYCLE:   145 TIME:   0.031 TIME LEFT:  2.00D  GRAD.:     3.757 HEAT: -248.0266
 CYCLE:   146 TIME:   0.039 TIME LEFT:  2.00D  GRAD.:     4.071 HEAT: -248.0391
 CYCLE:   147 TIME:   0.031 TIME LEFT:  2.00D  GRAD.:     3.694 HEAT: -248.0529
 CYCLE:   148 TIME:   0.023 TIME LEFT:  2.00D  GRAD.:     3.078 HEAT: -248.0620
 CYCLE:   149 TIME:   0.047 TIME LEFT:  2.00D  GRAD.:     2.528 HEAT: -248.0695
 CYCLE:   150 TIME:   0.039 TIME LEFT:  2.00D  GRAD.:     3.846 HEAT: -248.0789
 CYCLE:   151 TIME:   0.031 TIME LEFT:  2.00D  GRAD.:     3.971 HEAT: -248.0909
 CYCLE:   152 TIME:   0.031 TIME LEFT:  2.00D  GRAD.:     3.796 HEAT: -248.0994
 CYCLE:   153 TIME:   0.047 TIME LEFT:  2.00D  GRAD.:     3.297 HEAT: -248.1044
 CYCLE:   154 TIME:   0.031 TIME LEFT:  2.00D  GRAD.:     3.358 HEAT: -248.1082
 CYCLE:   155 TIME:   0.031 TIME LEFT:  2.00D  GRAD.:     2.231 HEAT: -248.1128
 CYCLE:   156 TIME:   0.031 TIME LEFT:  2.00D  GRAD.:     2.598 HEAT: -248.1218
 CYCLE:   157 TIME:   0.031 TIME LEFT:  2.00D  GRAD.:     2.701 HEAT: -248.1269
 CYCLE:   158 TIME:   0.031 TIME LEFT:  2.00D  GRAD.:     3.248 HEAT: -248.1342
 CYCLE:   159 TIME:   0.031 TIME LEFT:  2.00D  GRAD.:     2.361 HEAT: -248.1396
 CYCLE:   160 TIME:   0.031 TIME LEFT:  2.00D  GRAD.:     2.500 HEAT: -248.1443
 CYCLE:   161 TIME:   0.031 TIME LEFT:  2.00D  GRAD.:     2.509 HEAT: -248.1507
 CYCLE:   162 TIME:   0.031 TIME LEFT:  2.00D  GRAD.:     3.791 HEAT: -248.1542
 CYCLE:   163 TIME:   0.023 TIME LEFT:  2.00D  GRAD.:     1.692 HEAT: -248.1594
 CYCLE:   164 TIME:   0.031 TIME LEFT:  2.00D  GRAD.:     1.770 HEAT: -248.1629
 CYCLE:   165 TIME:   0.031 TIME LEFT:  2.00D  GRAD.:     2.357 HEAT: -248.1695
 CYCLE:   166 TIME:   0.031 TIME LEFT:  2.00D  GRAD.:     4.796 HEAT: -248.1736
 CYCLE:   167 TIME:   0.031 TIME LEFT:  2.00D  GRAD.:     2.030 HEAT: -248.1807
 CYCLE:   168 TIME:   0.031 TIME LEFT:  2.00D  GRAD.:     2.077 HEAT: -248.1861
 CYCLE:   169 TIME:   0.031 TIME LEFT:  2.00D  GRAD.:     2.488 HEAT: -248.1923
 CYCLE:   170 TIME:   0.031 TIME LEFT:  2.00D  GRAD.:     6.133 HEAT: -248.1930
 CYCLE:   171 TIME:   0.023 TIME LEFT:  2.00D  GRAD.:     2.342 HEAT: -248.2013
 CYCLE:   172 TIME:   0.031 TIME LEFT:  2.00D  GRAD.:     2.087 HEAT: -248.2044
 CYCLE:   173 TIME:   0.039 TIME LEFT:  2.00D  GRAD.:     2.424 HEAT: -248.2095
 CYCLE:   174 TIME:   0.031 TIME LEFT:  2.00D  GRAD.:     4.816 HEAT: -248.2173
 CYCLE:   175 TIME:   0.031 TIME LEFT:  2.00D  GRAD.:     2.400 HEAT: -248.2243
 CYCLE:   176 TIME:   0.039 TIME LEFT:  2.00D  GRAD.:     1.903 HEAT: -248.2273
 CYCLE:   177 TIME:   0.031 TIME LEFT:  2.00D  GRAD.:     2.668 HEAT: -248.2325
 CYCLE:   178 TIME:   0.031 TIME LEFT:  2.00D  GRAD.:     3.293 HEAT: -248.2392
 CYCLE:   179 TIME:   0.031 TIME LEFT:  2.00D  GRAD.:     2.943 HEAT: -248.2487
 CYCLE:   180 TIME:   0.039 TIME LEFT:  2.00D  GRAD.:     3.833 HEAT: -248.2564
 CYCLE:   181 TIME:   0.031 TIME LEFT:  2.00D  GRAD.:     3.721 HEAT: -248.2640
 CYCLE:   182 TIME:   0.047 TIME LEFT:  2.00D  GRAD.:     3.406 HEAT: -248.2716
 CYCLE:   183 TIME:   0.039 TIME LEFT:  2.00D  GRAD.:     2.694 HEAT: -248.2799
 CYCLE:   184 TIME:   0.031 TIME LEFT:  2.00D  GRAD.:     4.232 HEAT: -248.2903
 CYCLE:   185 TIME:   0.031 TIME LEFT:  2.00D  GRAD.:     3.234 HEAT: -248.2975
 CYCLE:   186 TIME:   0.047 TIME LEFT:  2.00D  GRAD.:     2.574 HEAT: -248.3029
 CYCLE:   187 TIME:   0.039 TIME LEFT:  2.00D  GRAD.:     2.819 HEAT: -248.3156
 CYCLE:   188 TIME:   0.031 TIME LEFT:  2.00D  GRAD.:     4.297 HEAT: -248.3294
 CYCLE:   189 TIME:   0.031 TIME LEFT:  2.00D  GRAD.:     3.507 HEAT: -248.3495
 CYCLE:   190 TIME:   0.023 TIME LEFT:  2.00D  GRAD.:     4.364 HEAT: -248.3674
 CYCLE:   191 TIME:   0.031 TIME LEFT:  2.00D  GRAD.:     5.057 HEAT: -248.3788
 CYCLE:   192 TIME:   0.031 TIME LEFT:  2.00D  GRAD.:     3.219 HEAT: -248.3871
 CYCLE:   193 TIME:   0.023 TIME LEFT:  2.00D  GRAD.:     3.168 HEAT: -248.3923
 CYCLE:   194 TIME:   0.031 TIME LEFT:  2.00D  GRAD.:     2.495 HEAT: -248.3974
 CYCLE:   195 TIME:   0.039 TIME LEFT:  2.00D  GRAD.:     2.100 HEAT: -248.4031
 CYCLE:   196 TIME:   0.023 TIME LEFT:  2.00D  GRAD.:     2.743 HEAT: -248.4119
 CYCLE:   197 TIME:   0.039 TIME LEFT:  2.00D  GRAD.:     3.852 HEAT: -248.4173
 CYCLE:   198 TIME:   0.031 TIME LEFT:  2.00D  GRAD.:     2.185 HEAT: -248.4230
 CYCLE:   199 TIME:   0.039 TIME LEFT:  2.00D  GRAD.:     2.261 HEAT: -248.4289
 CYCLE:   200 TIME:   0.023 TIME LEFT:  2.00D  GRAD.:     2.244 HEAT: -248.4332
 CYCLE:   201 TIME:   0.031 TIME LEFT:  2.00D  GRAD.:     2.665 HEAT: -248.4406
 CYCLE:   202 TIME:   0.039 TIME LEFT:  2.00D  GRAD.:     4.617 HEAT: -248.4443
 CYCLE:   203 TIME:   0.023 TIME LEFT:  2.00D  GRAD.:     2.106 HEAT: -248.4499
 CYCLE:   204 TIME:   0.039 TIME LEFT:  2.00D  GRAD.:     1.835 HEAT: -248.4538
 CYCLE:   205 TIME:   0.039 TIME LEFT:  2.00D  GRAD.:     2.550 HEAT: -248.4583
 CYCLE:   206 TIME:   0.031 TIME LEFT:  2.00D  GRAD.:     3.482 HEAT: -248.4630
 CYCLE:   207 TIME:   0.031 TIME LEFT:  2.00D  GRAD.:     1.692 HEAT: -248.4672
 CYCLE:   208 TIME:   0.031 TIME LEFT:  2.00D  GRAD.:     1.419 HEAT: -248.4695
 CYCLE:   209 TIME:   0.031 TIME LEFT:  2.00D  GRAD.:     1.642 HEAT: -248.4727
 CYCLE:   210 TIME:   0.031 TIME LEFT:  2.00D  GRAD.:     3.248 HEAT: -248.4754
 CYCLE:   211 TIME:   0.039 TIME LEFT:  2.00D  GRAD.:     1.601 HEAT: -248.4789
 CYCLE:   212 TIME:   0.031 TIME LEFT:  2.00D  GRAD.:     1.298 HEAT: -248.4813
 CYCLE:   213 TIME:   0.055 TIME LEFT:  2.00D  GRAD.:     1.864 HEAT: -248.4841
 CYCLE:   214 TIME:   0.047 TIME LEFT:  2.00D  GRAD.:     2.544 HEAT: -248.4864
 CYCLE:   215 TIME:   0.031 TIME LEFT:  2.00D  GRAD.:     1.395 HEAT: -248.4886
 CYCLE:   216 TIME:   0.047 TIME LEFT:  2.00D  GRAD.:     1.174 HEAT: -248.4904
 CYCLE:   217 TIME:   0.031 TIME LEFT:  2.00D  GRAD.:     1.395 HEAT: -248.4923
 CYCLE:   218 TIME:   0.031 TIME LEFT:  2.00D  GRAD.:     2.102 HEAT: -248.4955
 CYCLE:   219 TIME:   0.031 TIME LEFT:  2.00D  GRAD.:     2.905 HEAT: -248.4976
 CYCLE:   220 TIME:   0.031 TIME LEFT:  2.00D  GRAD.:     1.829 HEAT: -248.5001
 CYCLE:   221 TIME:   0.031 TIME LEFT:  2.00D  GRAD.:     1.349 HEAT: -248.5016
 CYCLE:   222 TIME:   0.039 TIME LEFT:  2.00D  GRAD.:     1.237 HEAT: -248.5037
 CYCLE:   223 TIME:   0.023 TIME LEFT:  2.00D  GRAD.:     2.624 HEAT: -248.5065
 CYCLE:   224 TIME:   0.031 TIME LEFT:  2.00D  GRAD.:     1.675 HEAT: -248.5096
 CYCLE:   225 TIME:   0.031 TIME LEFT:  2.00D  GRAD.:     1.439 HEAT: -248.5125
 CYCLE:   226 TIME:   0.039 TIME LEFT:  2.00D  GRAD.:     2.208 HEAT: -248.5146
 CYCLE:   227 TIME:   0.031 TIME LEFT:  2.00D  GRAD.:     1.345 HEAT: -248.5166
 CYCLE:   228 TIME:   0.031 TIME LEFT:  2.00D  GRAD.:     1.379 HEAT: -248.5192
 CYCLE:   229 TIME:   0.031 TIME LEFT:  2.00D  GRAD.:     1.827 HEAT: -248.5215
 CYCLE:   230 TIME:   0.031 TIME LEFT:  2.00D  GRAD.:     2.035 HEAT: -248.5242
 CYCLE:   231 TIME:   0.039 TIME LEFT:  2.00D  GRAD.:     1.487 HEAT: -248.5274
 CYCLE:   232 TIME:   0.031 TIME LEFT:  2.00D  GRAD.:     1.704 HEAT: -248.5316
 CYCLE:   233 TIME:   0.023 TIME LEFT:  2.00D  GRAD.:     2.925 HEAT: -248.5353
 CYCLE:   234 TIME:   0.039 TIME LEFT:  2.00D  GRAD.:     2.200 HEAT: -248.5392
 CYCLE:   235 TIME:   0.031 TIME LEFT:  2.00D  GRAD.:     1.888 HEAT: -248.5423
 CYCLE:   236 TIME:   0.039 TIME LEFT:  2.00D  GRAD.:     1.904 HEAT: -248.5456
 CYCLE:   237 TIME:   0.031 TIME LEFT:  2.00D  GRAD.:     2.239 HEAT: -248.5489
 CYCLE:   238 TIME:   0.039 TIME LEFT:  2.00D  GRAD.:     1.772 HEAT: -248.5528
 CYCLE:   239 TIME:   0.023 TIME LEFT:  2.00D  GRAD.:     2.004 HEAT: -248.5557
 CYCLE:   240 TIME:   0.031 TIME LEFT:  2.00D  GRAD.:     1.327 HEAT: -248.5579
 CYCLE:   241 TIME:   0.031 TIME LEFT:  2.00D  GRAD.:     1.404 HEAT: -248.5603
 CYCLE:   242 TIME:   0.031 TIME LEFT:  2.00D  GRAD.:     1.764 HEAT: -248.5627
 CYCLE:   243 TIME:   0.031 TIME LEFT:  2.00D  GRAD.:     2.307 HEAT: -248.5641
 CYCLE:   244 TIME:   0.031 TIME LEFT:  2.00D  GRAD.:     0.941 HEAT: -248.5659
 CYCLE:   245 TIME:   0.047 TIME LEFT:  2.00D  GRAD.:     0.868 HEAT: -248.5669
 CYCLE:   246 TIME:   0.031 TIME LEFT:  2.00D  GRAD.:     1.100 HEAT: -248.5681
 CYCLE:   247 TIME:   0.031 TIME LEFT:  2.00D  GRAD.:     3.007 HEAT: -248.5688
 CYCLE:   248 TIME:   0.047 TIME LEFT:  2.00D  GRAD.:     1.167 HEAT: -248.5707
 CYCLE:   249 TIME:   0.039 TIME LEFT:  2.00D  GRAD.:     0.913 HEAT: -248.5717
 CYCLE:   250 TIME:   0.031 TIME LEFT:  2.00D  GRAD.:     1.159 HEAT: -248.5729
 CYCLE:   251 TIME:   0.023 TIME LEFT:  2.00D  GRAD.:     2.126 HEAT: -248.5743
 CYCLE:   252 TIME:   0.031 TIME LEFT:  2.00D  GRAD.:     1.264 HEAT: -248.5758
 CYCLE:   253 TIME:   0.031 TIME LEFT:  2.00D  GRAD.:     0.932 HEAT: -248.5768
 CYCLE:   254 TIME:   0.031 TIME LEFT:  2.00D  GRAD.:     1.015 HEAT: -248.5783
 CYCLE:   255 TIME:   0.031 TIME LEFT:  2.00D  GRAD.:     1.446 HEAT: -248.5795
 CYCLE:   256 TIME:   0.031 TIME LEFT:  2.00D  GRAD.:     1.152 HEAT: -248.5810
 CYCLE:   257 TIME:   0.031 TIME LEFT:  2.00D  GRAD.:     1.063 HEAT: -248.5823
 CYCLE:   258 TIME:   0.039 TIME LEFT:  2.00D  GRAD.:     1.159 HEAT: -248.5834
 CYCLE:   259 TIME:   0.023 TIME LEFT:  2.00D  GRAD.:     0.999 HEAT: -248.5845
 CYCLE:   260 TIME:   0.031 TIME LEFT:  2.00D  GRAD.:     0.957 HEAT: -248.5859
 CYCLE:   261 TIME:   0.031 TIME LEFT:  2.00D  GRAD.:     1.512 HEAT: -248.5877
 CYCLE:   262 TIME:   0.023 TIME LEFT:  2.00D  GRAD.:     2.082 HEAT: -248.5885
 CYCLE:   263 TIME:   0.031 TIME LEFT:  2.00D  GRAD.:     0.828 HEAT: -248.5898
 CYCLE:   264 TIME:   0.039 TIME LEFT:  2.00D  GRAD.:     0.662 HEAT: -248.5904
 CYCLE:   265 TIME:   0.031 TIME LEFT:  2.00D  GRAD.:     1.004 HEAT: -248.5911
 CYCLE:   266 TIME:   0.039 TIME LEFT:  2.00D  GRAD.:     2.608 HEAT: -248.5912
 CYCLE:   267 TIME:   0.031 TIME LEFT:  2.00D  GRAD.:     0.790 HEAT: -248.5922
 CYCLE:   268 TIME:   0.039 TIME LEFT:  2.00D  GRAD.:     0.589 HEAT: -248.5926
 CYCLE:   269 TIME:   0.039 TIME LEFT:  2.00D  GRAD.:     0.738 HEAT: -248.5931
 CYCLE:   270 TIME:   0.031 TIME LEFT:  2.00D  GRAD.:     0.829 HEAT: -248.5939
 CYCLE:   271 TIME:   0.031 TIME LEFT:  2.00D  GRAD.:     1.902 HEAT: -248.5945
 CYCLE:   272 TIME:   0.031 TIME LEFT:  2.00D  GRAD.:     0.715 HEAT: -248.5955
 CYCLE:   273 TIME:   0.031 TIME LEFT:  2.00D  GRAD.:     0.542 HEAT: -248.5958
 CYCLE:   274 TIME:   0.031 TIME LEFT:  2.00D  GRAD.:     0.674 HEAT: -248.5963
 CYCLE:   275 TIME:   0.031 TIME LEFT:  2.00D  GRAD.:     1.128 HEAT: -248.5969
 CYCLE:   276 TIME:   0.031 TIME LEFT:  2.00D  GRAD.:     0.713 HEAT: -248.5974
 CYCLE:   277 TIME:   0.055 TIME LEFT:  2.00D  GRAD.:     0.503 HEAT: -248.5979
 CYCLE:   278 TIME:   0.031 TIME LEFT:  2.00D  GRAD.:     0.697 HEAT: -248.5982
 CYCLE:   279 TIME:   0.039 TIME LEFT:  2.00D  GRAD.:     0.470 HEAT: -248.5985
 CYCLE:   280 TIME:   0.047 TIME LEFT:  2.00D  GRAD.:     0.422 HEAT: -248.5987
 CYCLE:   281 TIME:   0.031 TIME LEFT:  2.00D  GRAD.:     0.541 HEAT: -248.5989
 CYCLE:   282 TIME:   0.031 TIME LEFT:  2.00D  GRAD.:     0.774 HEAT: -248.5991
 CYCLE:   283 TIME:   0.023 TIME LEFT:  2.00D  GRAD.:     0.549 HEAT: -248.5994
 CYCLE:   284 TIME:   0.039 TIME LEFT:  2.00D  GRAD.:     0.460 HEAT: -248.5997
 CYCLE:   285 TIME:   0.031 TIME LEFT:  2.00D  GRAD.:     0.665 HEAT: -248.5999
 CYCLE:   286 TIME:   0.031 TIME LEFT:  2.00D  GRAD.:     0.589 HEAT: -248.6002
 CYCLE:   287 TIME:   0.031 TIME LEFT:  2.00D  GRAD.:     1.013 HEAT: -248.6006
 CYCLE:   288 TIME:   0.031 TIME LEFT:  2.00D  GRAD.:     0.583 HEAT: -248.6010
 CYCLE:   289 TIME:   0.031 TIME LEFT:  2.00D  GRAD.:     0.563 HEAT: -248.6013
 CYCLE:   290 TIME:   0.031 TIME LEFT:  2.00D  GRAD.:     0.552 HEAT: -248.6018
 CYCLE:   291 TIME:   0.023 TIME LEFT:  2.00D  GRAD.:     1.516 HEAT: -248.6019
 CYCLE:   292 TIME:   0.039 TIME LEFT:  2.00D  GRAD.:     0.409 HEAT: -248.6023
 CYCLE:   293 TIME:   0.031 TIME LEFT:  2.00D  GRAD.:     0.334 HEAT: -248.6025
 CYCLE:   294 TIME:   0.039 TIME LEFT:  2.00D  GRAD.:     0.442 HEAT: -248.6027
 CYCLE:   295 TIME:   0.031 TIME LEFT:  2.00D  GRAD.:     1.094 HEAT: -248.6027
 CYCLE:   296 TIME:   0.023 TIME LEFT:  2.00D  GRAD.:     0.547 HEAT: -248.6030
 CYCLE:   297 TIME:   0.031 TIME LEFT:  2.00D  GRAD.:     0.428 HEAT: -248.6032
 CYCLE:   298 TIME:   0.031 TIME LEFT:  2.00D  GRAD.:     0.406 HEAT: -248.6034
 CYCLE:   299 TIME:   0.031 TIME LEFT:  2.00D  GRAD.:     0.495 HEAT: -248.6036
 CYCLE:   300 TIME:   0.039 TIME LEFT:  2.00D  GRAD.:     0.842 HEAT: -248.6037
 CYCLE:   301 TIME:   0.031 TIME LEFT:  2.00D  GRAD.:     0.474 HEAT: -248.6040
 CYCLE:   302 TIME:   0.031 TIME LEFT:  2.00D  GRAD.:     0.351 HEAT: -248.6042
 CYCLE:   303 TIME:   0.031 TIME LEFT:  2.00D  GRAD.:     0.406 HEAT: -248.6043
 CYCLE:   304 TIME:   0.023 TIME LEFT:  2.00D  GRAD.:     0.565 HEAT: -248.6045
 CYCLE:   305 TIME:   0.031 TIME LEFT:  2.00D  GRAD.:     0.648 HEAT: -248.6047
 CYCLE:   306 TIME:   0.031 TIME LEFT:  2.00D  GRAD.:     0.348 HEAT: -248.6048
 CYCLE:   307 TIME:   0.031 TIME LEFT:  2.00D  GRAD.:     0.490 HEAT: -248.6050
 CYCLE:   308 TIME:   0.031 TIME LEFT:  2.00D  GRAD.:     0.458 HEAT: -248.6052
 CYCLE:   309 TIME:   0.039 TIME LEFT:  2.00D  GRAD.:     0.511 HEAT: -248.6053
 CYCLE:   310 TIME:   0.039 TIME LEFT:  2.00D  GRAD.:     1.000 HEAT: -248.6057
 CYCLE:   311 TIME:   0.039 TIME LEFT:  2.00D  GRAD.:     0.516 HEAT: -248.6060
 CYCLE:   312 TIME:   0.039 TIME LEFT:  2.00D  GRAD.:     0.446 HEAT: -248.6062
 CYCLE:   313 TIME:   0.031 TIME LEFT:  2.00D  GRAD.:     0.437 HEAT: -248.6064
 CYCLE:   314 TIME:   0.039 TIME LEFT:  2.00D  GRAD.:     0.671 HEAT: -248.6067
 CYCLE:   315 TIME:   0.039 TIME LEFT:  2.00D  GRAD.:     0.643 HEAT: -248.6070
 CYCLE:   316 TIME:   0.031 TIME LEFT:  2.00D  GRAD.:     0.467 HEAT: -248.6072
 CYCLE:   317 TIME:   0.023 TIME LEFT:  2.00D  GRAD.:     0.495 HEAT: -248.6074
 CYCLE:   318 TIME:   0.031 TIME LEFT:  2.00D  GRAD.:     0.527 HEAT: -248.6076
 CYCLE:   319 TIME:   0.031 TIME LEFT:  2.00D  GRAD.:     0.639 HEAT: -248.6081
 CYCLE:   320 TIME:   0.023 TIME LEFT:  2.00D  GRAD.:     1.735 HEAT: -248.6080
 CYCLE:   321 TIME:   0.031 TIME LEFT:  2.00D  GRAD.:     0.493 HEAT: -248.6087
 CYCLE:   322 TIME:   0.039 TIME LEFT:  2.00D  GRAD.:     0.365 HEAT: -248.6088
 CYCLE:   323 TIME:   0.031 TIME LEFT:  2.00D  GRAD.:     0.460 HEAT: -248.6091
 CYCLE:   324 TIME:   0.031 TIME LEFT:  2.00D  GRAD.:     0.673 HEAT: -248.6095
 CYCLE:   325 TIME:   0.031 TIME LEFT:  2.00D  GRAD.:     0.709 HEAT: -248.6100
 CYCLE:   326 TIME:   0.031 TIME LEFT:  2.00D  GRAD.:     1.263 HEAT: -248.6106
 CYCLE:   327 TIME:   0.055 TIME LEFT:  2.00D  GRAD.:     0.972 HEAT: -248.6112
 CYCLE:   328 TIME:   0.055 TIME LEFT:  2.00D  GRAD.:     0.659 HEAT: -248.6118
 CYCLE:   329 TIME:   0.039 TIME LEFT:  2.00D  GRAD.:     0.752 HEAT: -248.6122
 CYCLE:   330 TIME:   0.031 TIME LEFT:  2.00D  GRAD.:     0.600 HEAT: -248.6125
 CYCLE:   331 TIME:   0.031 TIME LEFT:  2.00D  GRAD.:     0.532 HEAT: -248.6129
 CYCLE:   332 TIME:   0.031 TIME LEFT:  2.00D  GRAD.:     0.869 HEAT: -248.6136
 CYCLE:   333 TIME:   0.031 TIME LEFT:  2.00D  GRAD.:     1.217 HEAT: -248.6139
 CYCLE:   334 TIME:   0.031 TIME LEFT:  2.00D  GRAD.:     0.565 HEAT: -248.6144
 CYCLE:   335 TIME:   0.023 TIME LEFT:  2.00D  GRAD.:     0.507 HEAT: -248.6147
 CYCLE:   336 TIME:   0.031 TIME LEFT:  2.00D  GRAD.:     1.002 HEAT: -248.6151
 CYCLE:   337 TIME:   0.031 TIME LEFT:  2.00D  GRAD.:     0.736 HEAT: -248.6156
 CYCLE:   338 TIME:   0.023 TIME LEFT:  2.00D  GRAD.:     0.594 HEAT: -248.6163
 CYCLE:   339 TIME:   0.031 TIME LEFT:  2.00D  GRAD.:     0.787 HEAT: -248.6166
 CYCLE:   340 TIME:   0.039 TIME LEFT:  2.00D  GRAD.:     0.664 HEAT: -248.6170
 CYCLE:   341 TIME:   0.047 TIME LEFT:  2.00D  GRAD.:     0.988 HEAT: -248.6176
 CYCLE:   342 TIME:   0.047 TIME LEFT:  2.00D  GRAD.:     0.924 HEAT: -248.6180
 CYCLE:   343 TIME:   0.039 TIME LEFT:  2.00D  GRAD.:     0.561 HEAT: -248.6183
 CYCLE:   344 TIME:   0.031 TIME LEFT:  2.00D  GRAD.:     0.562 HEAT: -248.6186
 CYCLE:   345 TIME:   0.023 TIME LEFT:  2.00D  GRAD.:     0.782 HEAT: -248.6186
 CYCLE:   346 TIME:   0.031 TIME LEFT:  2.00D  GRAD.:     0.543 HEAT: -248.6191
 CYCLE:   347 TIME:   0.039 TIME LEFT:  2.00D  GRAD.:     0.448 HEAT: -248.6196
 CYCLE:   348 TIME:   0.031 TIME LEFT:  2.00D  GRAD.:     0.668 HEAT: -248.6199
 CYCLE:   349 TIME:   0.039 TIME LEFT:  2.00D  GRAD.:     0.528 HEAT: -248.6202
 CYCLE:   350 TIME:   0.023 TIME LEFT:  2.00D  GRAD.:     0.724 HEAT: -248.6204
 CYCLE:   351 TIME:   0.039 TIME LEFT:  2.00D  GRAD.:     0.386 HEAT: -248.6206
 CYCLE:   352 TIME:   0.562 TIME LEFT:  2.00D  GRAD.:     0.434 HEAT: -248.6207
 CYCLE:   353 TIME:   0.062 TIME LEFT:  2.00D  GRAD.:     0.533 HEAT: -248.6210
 CYCLE:   354 TIME:   0.094 TIME LEFT:  2.00D  GRAD.:     0.600 HEAT: -248.6211
 CYCLE:   355 TIME:   0.047 TIME LEFT:  2.00D  GRAD.:     0.401 HEAT: -248.6213
 CYCLE:   356 TIME:   0.031 TIME LEFT:  2.00D  GRAD.:     0.407 HEAT: -248.6216
 CYCLE:   357 TIME:   0.031 TIME LEFT:  2.00D  GRAD.:     0.575 HEAT: -248.6217
 CYCLE:   358 TIME:   0.031 TIME LEFT:  2.00D  GRAD.:     0.569 HEAT: -248.6219
 CYCLE:   359 TIME:   0.031 TIME LEFT:  2.00D  GRAD.:     0.817 HEAT: -248.6222
 CYCLE:   360 TIME:   0.031 TIME LEFT:  2.00D  GRAD.:     0.552 HEAT: -248.6224
 CYCLE:   361 TIME:   0.031 TIME LEFT:  2.00D  GRAD.:     0.513 HEAT: -248.6227
 CYCLE:   362 TIME:   0.031 TIME LEFT:  2.00D  GRAD.:     0.673 HEAT: -248.6231
 CYCLE:   363 TIME:   0.031 TIME LEFT:  2.00D  GRAD.:     0.843 HEAT: -248.6235
 CYCLE:   364 TIME:   0.031 TIME LEFT:  2.00D  GRAD.:     0.757 HEAT: -248.6239
 CYCLE:   365 TIME:   0.023 TIME LEFT:  2.00D  GRAD.:     0.828 HEAT: -248.6243
 CYCLE:   366 TIME:   0.039 TIME LEFT:  2.00D  GRAD.:     0.964 HEAT: -248.6248
 CYCLE:   367 TIME:   0.031 TIME LEFT:  2.00D  GRAD.:     0.736 HEAT: -248.6253
 CYCLE:   368 TIME:   0.031 TIME LEFT:  2.00D  GRAD.:     0.525 HEAT: -248.6255
 CYCLE:   369 TIME:   0.039 TIME LEFT:  2.00D  GRAD.:     0.405 HEAT: -248.6258
 CYCLE:   370 TIME:   0.031 TIME LEFT:  2.00D  GRAD.:     0.763 HEAT: -248.6263
 CYCLE:   371 TIME:   0.039 TIME LEFT:  2.00D  GRAD.:     1.146 HEAT: -248.6264
 CYCLE:   372 TIME:   0.031 TIME LEFT:  2.00D  GRAD.:     0.546 HEAT: -248.6268
 CYCLE:   373 TIME:   0.031 TIME LEFT:  2.00D  GRAD.:     0.500 HEAT: -248.6270
 CYCLE:   374 TIME:   0.023 TIME LEFT:  2.00D  GRAD.:     0.860 HEAT: -248.6272
 CYCLE:   375 TIME:   0.039 TIME LEFT:  2.00D  GRAD.:     0.550 HEAT: -248.6275
 CYCLE:   376 TIME:   0.039 TIME LEFT:  2.00D  GRAD.:     0.522 HEAT: -248.6279
 CYCLE:   377 TIME:   0.031 TIME LEFT:  2.00D  GRAD.:     0.676 HEAT: -248.6281
 CYCLE:   378 TIME:   0.031 TIME LEFT:  2.00D  GRAD.:     0.717 HEAT: -248.6285
 CYCLE:   379 TIME:   0.023 TIME LEFT:  2.00D  GRAD.:     1.787 HEAT: -248.6286
 CYCLE:   380 TIME:   0.031 TIME LEFT:  2.00D  GRAD.:     0.475 HEAT: -248.6292
 CYCLE:   381 TIME:   0.031 TIME LEFT:  2.00D  GRAD.:     0.374 HEAT: -248.6293
 CYCLE:   382 TIME:   0.031 TIME LEFT:  2.00D  GRAD.:     0.518 HEAT: -248.6296
 CYCLE:   383 TIME:   0.031 TIME LEFT:  2.00D  GRAD.:     0.708 HEAT: -248.6300
 CYCLE:   384 TIME:   0.031 TIME LEFT:  2.00D  GRAD.:     1.157 HEAT: -248.6304
 CYCLE:   385 TIME:   0.039 TIME LEFT:  2.00D  GRAD.:     0.742 HEAT: -248.6308
 CYCLE:   386 TIME:   0.047 TIME LEFT:  2.00D  GRAD.:     0.439 HEAT: -248.6311
 CYCLE:   387 TIME:   0.047 TIME LEFT:  2.00D  GRAD.:     0.474 HEAT: -248.6312
 CYCLE:   388 TIME:   0.031 TIME LEFT:  2.00D  GRAD.:     0.537 HEAT: -248.6313
 CYCLE:   389 TIME:   0.031 TIME LEFT:  2.00D  GRAD.:     1.014 HEAT: -248.6312
 CYCLE:   390 TIME:   0.031 TIME LEFT:  2.00D  GRAD.:     2.557 HEAT: -248.6306
 CYCLE:   391 TIME:   0.039 TIME LEFT:  2.00D  GRAD.:     0.385 HEAT: -248.6317
 CYCLE:   392 TIME:   0.031 TIME LEFT:  2.00D  GRAD.:     0.438 HEAT: -248.6319
 CYCLE:   393 TIME:   0.031 TIME LEFT:  2.00D  GRAD.:     0.748 HEAT: -248.6321
 CYCLE:   394 TIME:   0.031 TIME LEFT:  2.00D  GRAD.:     0.572 HEAT: -248.6324
 CYCLE:   395 TIME:   0.031 TIME LEFT:  2.00D  GRAD.:     0.688 HEAT: -248.6326
 CYCLE:   396 TIME:   0.031 TIME LEFT:  2.00D  GRAD.:     0.532 HEAT: -248.6328
 CYCLE:   397 TIME:   0.031 TIME LEFT:  2.00D  GRAD.:     0.566 HEAT: -248.6332
 CYCLE:   398 TIME:   0.031 TIME LEFT:  2.00D  GRAD.:     0.649 HEAT: -248.6336
 CYCLE:   399 TIME:   0.031 TIME LEFT:  2.00D  GRAD.:     0.698 HEAT: -248.6337
 CYCLE:   400 TIME:   0.039 TIME LEFT:  2.00D  GRAD.:     3.007 HEAT: -248.6320
 CYCLE:   401 TIME:   0.031 TIME LEFT:  2.00D  GRAD.:     0.489 HEAT: -248.6342
 CYCLE:   402 TIME:   0.031 TIME LEFT:  2.00D  GRAD.:     0.396 HEAT: -248.6343
 CYCLE:   403 TIME:   0.031 TIME LEFT:  2.00D  GRAD.:     0.655 HEAT: -248.6345
 CYCLE:   404 TIME:   0.031 TIME LEFT:  2.00D  GRAD.:     0.675 HEAT: -248.6350
 CYCLE:   405 TIME:   0.039 TIME LEFT:  2.00D  GRAD.:     1.675 HEAT: -248.6350
 CYCLE:   406 TIME:   0.023 TIME LEFT:  2.00D  GRAD.:     0.570 HEAT: -248.6356
 CYCLE:   407 TIME:   0.039 TIME LEFT:  2.00D  GRAD.:     0.443 HEAT: -248.6357
 CYCLE:   408 TIME:   0.039 TIME LEFT:  2.00D  GRAD.:     0.570 HEAT: -248.6360
 CYCLE:   409 TIME:   0.031 TIME LEFT:  2.00D  GRAD.:     0.989 HEAT: -248.6363
 CYCLE:   410 TIME:   0.070 TIME LEFT:  2.00D  GRAD.:     0.751 HEAT: -248.6366
 CYCLE:   411 TIME:   0.070 TIME LEFT:  2.00D  GRAD.:     0.616 HEAT: -248.6370
 CYCLE:   412 TIME:   0.047 TIME LEFT:  2.00D  GRAD.:     0.805 HEAT: -248.6375
 CYCLE:   413 TIME:   0.047 TIME LEFT:  2.00D  GRAD.:     0.819 HEAT: -248.6379
 CYCLE:   414 TIME:   0.062 TIME LEFT:  2.00D  GRAD.:     0.618 HEAT: -248.6382
 CYCLE:   415 TIME:   0.070 TIME LEFT:  2.00D  GRAD.:     0.538 HEAT: -248.6386
 CYCLE:   416 TIME:   0.047 TIME LEFT:  2.00D  GRAD.:     0.774 HEAT: -248.6390
 CYCLE:   417 TIME:   0.039 TIME LEFT:  2.00D  GRAD.:     0.789 HEAT: -248.6394
 CYCLE:   418 TIME:   0.047 TIME LEFT:  2.00D  GRAD.:     0.983 HEAT: -248.6404
 CYCLE:   419 TIME:   0.031 TIME LEFT:  2.00D  GRAD.:     0.909 HEAT: -248.6414
 CYCLE:   420 TIME:   0.039 TIME LEFT:  2.00D  GRAD.:     1.035 HEAT: -248.6423
 CYCLE:   421 TIME:   0.031 TIME LEFT:  2.00D  GRAD.:     1.035 HEAT: -248.6432
 CYCLE:   422 TIME:   0.031 TIME LEFT:  2.00D  GRAD.:     1.281 HEAT: -248.6442
 CYCLE:   423 TIME:   0.039 TIME LEFT:  2.00D  GRAD.:     2.426 HEAT: -248.6445
 CYCLE:   424 TIME:   0.039 TIME LEFT:  2.00D  GRAD.:     1.683 HEAT: -248.6456
 CYCLE:   425 TIME:   0.039 TIME LEFT:  2.00D  GRAD.:     1.175 HEAT: -248.6461
 CYCLE:   426 TIME:   0.031 TIME LEFT:  2.00D  GRAD.:     1.185 HEAT: -248.6464
 CYCLE:   427 TIME:   0.039 TIME LEFT:  2.00D  GRAD.:     0.565 HEAT: -248.6468
 CYCLE:   428 TIME:   0.039 TIME LEFT:  2.00D  GRAD.:     0.556 HEAT: -248.6471
 CYCLE:   429 TIME:   0.039 TIME LEFT:  2.00D  GRAD.:     0.830 HEAT: -248.6474
 CYCLE:   430 TIME:   0.031 TIME LEFT:  2.00D  GRAD.:     0.703 HEAT: -248.6477
 CYCLE:   431 TIME:   0.031 TIME LEFT:  2.00D  GRAD.:     0.461 HEAT: -248.6479
 CYCLE:   432 TIME:   0.031 TIME LEFT:  2.00D  GRAD.:     0.575 HEAT: -248.6481
 CYCLE:   433 TIME:   0.039 TIME LEFT:  2.00D  GRAD.:     0.660 HEAT: -248.6484
 CYCLE:   434 TIME:   0.031 TIME LEFT:  2.00D  GRAD.:     0.936 HEAT: -248.6488
 CYCLE:   435 TIME:   0.031 TIME LEFT:  2.00D  GRAD.:     0.712 HEAT: -248.6492
 CYCLE:   436 TIME:   0.023 TIME LEFT:  2.00D  GRAD.:     0.516 HEAT: -248.6495
 CYCLE:   437 TIME:   0.031 TIME LEFT:  2.00D  GRAD.:     0.608 HEAT: -248.6499
 CYCLE:   438 TIME:   0.031 TIME LEFT:  2.00D  GRAD.:     0.686 HEAT: -248.6502
 CYCLE:   439 TIME:   0.031 TIME LEFT:  2.00D  GRAD.:     0.594 HEAT: -248.6507
 CYCLE:   440 TIME:   0.031 TIME LEFT:  2.00D  GRAD.:     0.629 HEAT: -248.6510
 CYCLE:   441 TIME:   0.031 TIME LEFT:  2.00D  GRAD.:     0.533 HEAT: -248.6513
 CYCLE:   442 TIME:   0.047 TIME LEFT:  2.00D  GRAD.:     0.495 HEAT: -248.6516
 CYCLE:   443 TIME:   0.031 TIME LEFT:  2.00D  GRAD.:     0.866 HEAT: -248.6518
 CYCLE:   444 TIME:   0.055 TIME LEFT:  2.00D  GRAD.:     0.442 HEAT: -248.6521
 CYCLE:   445 TIME:   0.031 TIME LEFT:  2.00D  GRAD.:     0.499 HEAT: -248.6521
 CYCLE:   446 TIME:   0.039 TIME LEFT:  2.00D  GRAD.:     0.376 HEAT: -248.6522
 CYCLE:   447 TIME:   0.031 TIME LEFT:  2.00D  GRAD.:     0.412 HEAT: -248.6523
 CYCLE:   448 TIME:   0.031 TIME LEFT:  2.00D  GRAD.:     0.372 HEAT: -248.6524
 CYCLE:   449 TIME:   0.023 TIME LEFT:  2.00D  GRAD.:     0.396 HEAT: -248.6525
 CYCLE:   450 TIME:   0.031 TIME LEFT:  2.00D  GRAD.:     0.392 HEAT: -248.6527
 CYCLE:   451 TIME:   0.031 TIME LEFT:  2.00D  GRAD.:     0.372 HEAT: -248.6528
 CYCLE:   452 TIME:   0.031 TIME LEFT:  2.00D  GRAD.:     0.442 HEAT: -248.6530
 CYCLE:   453 TIME:   0.031 TIME LEFT:  2.00D  GRAD.:     0.660 HEAT: -248.6533
 CYCLE:   454 TIME:   0.031 TIME LEFT:  2.00D  GRAD.:     0.564 HEAT: -248.6536
 CYCLE:   455 TIME:   0.039 TIME LEFT:  2.00D  GRAD.:     0.507 HEAT: -248.6538
 CYCLE:   456 TIME:   0.031 TIME LEFT:  2.00D  GRAD.:     0.535 HEAT: -248.6541
 CYCLE:   457 TIME:   0.031 TIME LEFT:  2.00D  GRAD.:     0.481 HEAT: -248.6543
 CYCLE:   458 TIME:   0.031 TIME LEFT:  2.00D  GRAD.:     0.468 HEAT: -248.6546
 CYCLE:   459 TIME:   0.031 TIME LEFT:  2.00D  GRAD.:     0.682 HEAT: -248.6549
 CYCLE:   460 TIME:   0.023 TIME LEFT:  2.00D  GRAD.:     0.559 HEAT: -248.6553
 CYCLE:   461 TIME:   0.039 TIME LEFT:  2.00D  GRAD.:     0.489 HEAT: -248.6555
 CYCLE:   462 TIME:   0.023 TIME LEFT:  2.00D  GRAD.:     0.508 HEAT: -248.6557
 CYCLE:   463 TIME:   0.039 TIME LEFT:  2.00D  GRAD.:     0.754 HEAT: -248.6558
 CYCLE:   464 TIME:   0.031 TIME LEFT:  2.00D  GRAD.:     0.485 HEAT: -248.6560
 CYCLE:   465 TIME:   0.031 TIME LEFT:  2.00D  GRAD.:     0.322 HEAT: -248.6563
 CYCLE:   466 TIME:   0.031 TIME LEFT:  2.00D  GRAD.:     0.549 HEAT: -248.6564
 CYCLE:   467 TIME:   0.031 TIME LEFT:  2.00D  GRAD.:     0.415 HEAT: -248.6566
 CYCLE:   468 TIME:   0.039 TIME LEFT:  2.00D  GRAD.:     0.728 HEAT: -248.6568
 CYCLE:   469 TIME:   0.023 TIME LEFT:  2.00D  GRAD.:     0.472 HEAT: -248.6569
 CYCLE:   470 TIME:   0.039 TIME LEFT:  2.00D  GRAD.:     0.334 HEAT: -248.6570
 CYCLE:   471 TIME:   0.031 TIME LEFT:  2.00D  GRAD.:     0.228 HEAT: -248.6571
 CYCLE:   472 TIME:   0.031 TIME LEFT:  2.00D  GRAD.:     0.518 HEAT: -248.6573
 CYCLE:   473 TIME:   0.039 TIME LEFT:  2.00D  GRAD.:     0.381 HEAT: -248.6574
 CYCLE:   474 TIME:   0.047 TIME LEFT:  2.00D  GRAD.:     0.455 HEAT: -248.6576
 CYCLE:   475 TIME:   0.039 TIME LEFT:  2.00D  GRAD.:     0.894 HEAT: -248.6576
 CYCLE:   476 TIME:   0.039 TIME LEFT:  2.00D  GRAD.:     0.381 HEAT: -248.6578
 CYCLE:   477 TIME:   0.031 TIME LEFT:  2.00D  GRAD.:     0.224 HEAT: -248.6578
 CYCLE:   478 TIME:   0.031 TIME LEFT:  2.00D  GRAD.:     0.222 HEAT: -248.6579
 CYCLE:   479 TIME:   0.039 TIME LEFT:  2.00D  GRAD.:     0.409 HEAT: -248.6581
 CYCLE:   480 TIME:   0.031 TIME LEFT:  2.00D  GRAD.:     0.502 HEAT: -248.6582
 CYCLE:   481 TIME:   0.031 TIME LEFT:  2.00D  GRAD.:     0.421 HEAT: -248.6583
 CYCLE:   482 TIME:   0.023 TIME LEFT:  2.00D  GRAD.:     0.782 HEAT: -248.6582
 CYCLE:   483 TIME:   0.031 TIME LEFT:  2.00D  GRAD.:     0.333 HEAT: -248.6584
 CYCLE:   484 TIME:   0.039 TIME LEFT:  2.00D  GRAD.:     0.206 HEAT: -248.6585
 CYCLE:   485 TIME:   0.031 TIME LEFT:  2.00D  GRAD.:     0.373 HEAT: -248.6585
 CYCLE:   486 TIME:   0.023 TIME LEFT:  2.00D  GRAD.:     0.460 HEAT: -248.6586
 CYCLE:   487 TIME:   0.031 TIME LEFT:  2.00D  GRAD.:     0.369 HEAT: -248.6587
 CYCLE:   488 TIME:   0.039 TIME LEFT:  2.00D  GRAD.:     0.245 HEAT: -248.6587
 CYCLE:   489 TIME:   0.039 TIME LEFT:  2.00D  GRAD.:     0.211 HEAT: -248.6588
 CYCLE:   490 TIME:   0.031 TIME LEFT:  2.00D  GRAD.:     0.506 HEAT: -248.6589
 CYCLE:   491 TIME:   0.039 TIME LEFT:  2.00D  GRAD.:     0.498 HEAT: -248.6591
 CYCLE:   492 TIME:   0.039 TIME LEFT:  2.00D  GRAD.:     0.383 HEAT: -248.6592
 CYCLE:   493 TIME:   0.031 TIME LEFT:  2.00D  GRAD.:     0.309 HEAT: -248.6593
 CYCLE:   494 TIME:   0.039 TIME LEFT:  2.00D  GRAD.:     0.434 HEAT: -248.6594
 CYCLE:   495 TIME:   0.031 TIME LEFT:  2.00D  GRAD.:     0.269 HEAT: -248.6594
 CYCLE:   496 TIME:   0.031 TIME LEFT:  2.00D  GRAD.:     0.243 HEAT: -248.6595
 CYCLE:   497 TIME:   0.031 TIME LEFT:  2.00D  GRAD.:     0.382 HEAT: -248.6596
 CYCLE:   498 TIME:   0.031 TIME LEFT:  2.00D  GRAD.:     0.355 HEAT: -248.6596
 CYCLE:   499 TIME:   0.039 TIME LEFT:  2.00D  GRAD.:     0.234 HEAT: -248.6597
 CYCLE:   500 TIME:   0.031 TIME LEFT:  2.00D  GRAD.:     0.212 HEAT: -248.6597
 CYCLE:   501 TIME:   0.031 TIME LEFT:  2.00D  GRAD.:     0.337 HEAT: -248.6598
 CYCLE:   502 TIME:   0.031 TIME LEFT:  2.00D  GRAD.:     0.229 HEAT: -248.6599
 CYCLE:   503 TIME:   0.039 TIME LEFT:  2.00D  GRAD.:     0.195 HEAT: -248.6599

 -------------------------------------------------------------------------------
 AUX LARGE CHARGE=0 SINGLET  PM6  OPT PRECISE PRTXYZ
 CN395.pdb
 45


     HERBERTS TEST WAS SATISFIED IN BFGS                      
     SCF FIELD WAS ACHIEVED                                   


                              PM6 CALCULATION
                                                       MOPAC2016 (Version: 20.225L)
                                                       Fri Aug 14 20:44:43 2020
                                                       No. of days remaining = 364




          FINAL HEAT OF FORMATION =       -248.65990 KCAL/MOL =   -1040.39304 KJ/MOL


          TOTAL ENERGY            =      -3745.27748 EV
          ELECTRONIC ENERGY       =     -26081.07146 EV  POINT GROUP:     C1  
          CORE-CORE REPULSION     =      22335.79399 EV
          COSMO AREA              =        345.31 SQUARE ANGSTROMS
          COSMO VOLUME            =        375.25 CUBIC ANGSTROMS

          GRADIENT NORM           =          0.19463 = 0.02901 PER ATOM
          IONIZATION POTENTIAL    =          9.550981 EV
          HOMO LUMO ENERGIES (EV) =         -9.551 -0.351
          NO. OF FILLED LEVELS    =         59
          MOLECULAR WEIGHT        =        296.3626

          MOLECULAR DIMENSIONS (Angstroms)

            Atom       Atom       Distance
            H    43    H    31    16.06940
            H    32    H    28     5.97375
            H    42    H    27     3.89083


          SCF CALCULATIONS        =        504
 
          WALL-CLOCK TIME         =         17.719 SECONDS
          COMPUTATION TIME        =         32.094 SECONDS




   ATOM   CHEMICAL          X               Y               Z
  NUMBER   SYMBOL      (ANGSTROMS)     (ANGSTROMS)     (ANGSTROMS)
 
     1       C          3.45967334  *  -5.96470707  *  -0.64529401  *
     2       C          3.25199565  *  -7.35055160  *  -0.64417657  *
     3       C          4.27106958  *  -8.14026152  *  -0.09236184  *
     4       C          5.44786460  *  -7.58667735  *   0.44708778  *
     5       C          5.61578964  *  -6.17930501  *   0.42097732  *
     6       C          4.61958841  *  -5.36841702  *  -0.11979719  *
     7       C          6.48631160  *  -8.44601786  *   1.03818267  *
     8       O          7.34675219  *  -8.90939410  *   0.06269396  *
     9       C          8.05960815  *  -5.72927188  *   0.01939485  *
    10       C          6.86346731  *  -5.56992129  *   0.98808482  *
    11       O          6.69744089  *  -8.73467346  *   2.19266002  *
    12       O          4.16728182  *  -9.49895165  *  -0.03278717  *
    13       C          9.39387433  *  -5.56538080  *   0.76261854  *
    14       O          2.54002606  *  -5.09569803  *  -1.15380439  *
    15       O          7.94662931  *  -4.77851649  *  -1.04243246  *
    16       C         10.57818821  *  -5.76018696  *  -0.19217136  *
    17       C         11.91507697  *  -5.46735411  *   0.49929994  *
    18       C         13.09585601  *  -5.68312497  *  -0.45696328  *
    19       C         14.43555941  *  -5.39152803  *   0.23145459  *
    20       C         15.61758014  *  -5.60828318  *  -0.72382888  *
    21       C         16.95357007  *  -5.31661481  *  -0.04438425  *
    22       H          2.35423542  *  -7.79192150  *  -1.05211749  *
    23       H          4.72964565  *  -4.28679543  *  -0.16883588  *
    24       H          8.04031166  *  -9.52164281  *   0.42666786  *
    25       H          8.00674751  *  -6.70086488  *  -0.53511431  *
    26       H          6.71059425  *  -4.49477073  *   1.21358452  *
    27       H          7.09795255  *  -6.03318609  *   1.97271012  *
    28       H          3.32221396  *  -9.83783898  *  -0.42782114  *
    29       H          9.45079806  *  -4.56862471  *   1.23911497  *
    30       H          9.45548531  *  -6.29622027  *   1.59280120  *
    31       H          1.74157185  *  -5.55360060  *  -1.52334774  *
    32       H          8.08712302  *  -3.86627191  *  -0.72706813  *
    33       H         10.57453320  *  -6.79389961  *  -0.59006245  *
    34       H         10.45067491  *  -5.10380666  *  -1.07806229  *
    35       H         11.92541985  *  -4.42757052  *   0.87917125  *
    36       H         12.03008645  *  -6.11455060  *   1.39027885  *
    37       H         13.08677668  *  -6.72269161  *  -0.83809186  *
    38       H         12.98136341  *  -5.03597841  *  -1.34816389  *
    39       H         14.44736381  *  -4.35195952  *   0.61144841  *
    40       H         14.55118008  *  -6.03770746  *   1.12274868  *
    41       H         15.60984056  *  -6.64948434  *  -1.10170634  *
    42       H         15.50368315  *  -4.96255856  *  -1.61654588  *
    43       H         17.79127952  *  -5.48030798  *  -0.73146226  *
    44       H         17.11298942  *  -5.96217281  *   0.82677747  *
    45       H         17.01192605  *  -4.27873678  *   0.30264322  *

                             CARTESIAN COORDINATES

   1    C        3.459673342    -5.964707068    -0.645294013
   2    C        3.251995646    -7.350551596    -0.644176568
   3    C        4.271069583    -8.140261522    -0.092361840
   4    C        5.447864604    -7.586677348     0.447087776
   5    C        5.615789644    -6.179305012     0.420977324
   6    C        4.619588412    -5.368417023    -0.119797187
   7    C        6.486311602    -8.446017856     1.038182674
   8    O        7.346752186    -8.909394104     0.062693964
   9    C        8.059608149    -5.729271885     0.019394849
  10    C        6.863467314    -5.569921294     0.988084816
  11    O        6.697440889    -8.734673464     2.192660016
  12    O        4.167281817    -9.498951653    -0.032787170
  13    C        9.393874325    -5.565380801     0.762618543
  14    O        2.540026063    -5.095698035    -1.153804386
  15    O        7.946629312    -4.778516495    -1.042432462
  16    C       10.578188212    -5.760186964    -0.192171359
  17    C       11.915076967    -5.467354111     0.499299941
  18    C       13.095856013    -5.683124967    -0.456963275
  19    C       14.435559412    -5.391528033     0.231454590
  20    C       15.617580141    -5.608283185    -0.723828882
  21    C       16.953570069    -5.316614810    -0.044384251
  22    H        2.354235416    -7.791921498    -1.052117493
  23    H        4.729645649    -4.286795432    -0.168835884
  24    H        8.040311661    -9.521642811     0.426667860
  25    H        8.006747507    -6.700864882    -0.535114313
  26    H        6.710594252    -4.494770732     1.213584520
  27    H        7.097952555    -6.033186090     1.972710123
  28    H        3.322213960    -9.837838981    -0.427821140
  29    H        9.450798063    -4.568624710     1.239114973
  30    H        9.455485308    -6.296220273     1.592801195
  31    H        1.741571846    -5.553600597    -1.523347737
  32    H        8.087123016    -3.866271912    -0.727068131
  33    H       10.574533203    -6.793899613    -0.590062452
  34    H       10.450674909    -5.103806661    -1.078062287
  35    H       11.925419845    -4.427570525     0.879171255
  36    H       12.030086454    -6.114550596     1.390278852
  37    H       13.086776678    -6.722691615    -0.838091860
  38    H       12.981363407    -5.035978409    -1.348163892
  39    H       14.447363811    -4.351959521     0.611448411
  40    H       14.551180082    -6.037707460     1.122748684
  41    H       15.609840558    -6.649484337    -1.101706339
  42    H       15.503683148    -4.962558558    -1.616545877
  43    H       17.791279521    -5.480307976    -0.731462261
  44    H       17.112989422    -5.962172810     0.826777470
  45    H       17.011926048    -4.278736782     0.302643224


           Empirical Formula: C16 H24 O5  =    45 atoms



      MOLECULAR POINT GROUP   :   C1  


                  EIGENVALUES  
 -32.27389 -31.71814 -31.65472 -30.64937 -30.31428 -30.10690 -28.86205 -27.96128
 -27.66741 -26.82297 -26.31357 -25.16581 -24.03023 -23.34994 -22.54849 -21.73477
 -21.03203 -20.94352 -20.27918 -19.98130 -19.11958 -18.63824 -18.08638 -17.23711
 -17.20209 -16.74248 -16.61916 -16.06836 -15.69112 -15.50814 -15.38275 -15.24535
 -15.14373 -14.94867 -14.68684 -14.43948 -14.32874 -14.20544 -13.96638 -13.78298
 -13.32138 -13.17222 -13.07469 -12.94404 -12.76072 -12.70892 -12.22958 -12.10469
 -11.97184 -11.86715 -11.78515 -11.64689 -11.32747 -11.28511 -11.21277 -11.07604
 -10.65692 -10.02596  -9.55098  -0.35124  -0.09532   0.65427   1.54424   1.68415
   1.83402   2.09934   2.70044   2.98453   3.29456   3.37800   3.51591   3.61821
   3.80244   3.89024   3.99903   4.06535   4.10523   4.15350   4.42213   4.45843
   4.55395   4.73552   4.85112   4.90619   4.93691   4.97833   5.00453   5.18031
   5.24757   5.38655   5.48480   5.51972   5.65370   5.79212   5.88681   5.92720
   5.97234   6.08733   6.10324   6.16750   6.22260   6.35145   6.43056   6.56795
   6.61491   6.66729   6.70916   6.92984


              NET ATOMIC CHARGES AND DIPOLE CONTRIBUTIONS

  ATOM NO.   TYPE          CHARGE      No. of ELECS.   s-Pop       p-Pop       
    1          C           0.509154        3.4908     1.07460     2.41625
    2          C          -0.633905        4.6339     1.10886     3.52505
    3          C           0.531104        3.4689     1.06727     2.40163
    4          C          -0.481238        4.4812     1.09102     3.39022
    5          C           0.374035        3.6260     1.08151     2.54445
    6          C          -0.470599        4.4706     1.10508     3.36552
    7          C           0.716732        3.2833     1.07134     2.21193
    8          O          -0.531674        6.5317     1.81810     4.71358
    9          C           0.224390        3.7756     1.09999     2.67562
   10          C          -0.461067        4.4611     1.10957     3.35150
   11          O          -0.516027        6.5160     1.85234     4.66369
   12          O          -0.454970        6.4550     1.80388     4.65109
   13          C          -0.370846        4.3708     1.10247     3.26837
   14          O          -0.453370        6.4534     1.80426     4.64911
   15          O          -0.556710        6.5567     1.81664     4.74007
   16          C          -0.241572        4.2416     1.08510     3.15647
   17          C          -0.265966        4.2660     1.08754     3.17843
   18          C          -0.263171        4.2632     1.08731     3.17586
   19          C          -0.266147        4.2661     1.08797     3.17818
   20          C          -0.221199        4.2212     1.08089     3.14030
   21          C          -0.464308        4.4643     1.08229     3.38202
   22          H           0.194495        0.8055     0.80551
   23          H           0.206136        0.7939     0.79386
   24          H           0.335775        0.6642     0.66423
   25          H           0.159265        0.8407     0.84073
   26          H           0.176560        0.8234     0.82344
   27          H           0.189279        0.8107     0.81072
   28          H           0.334037        0.6660     0.66596
   29          H           0.146093        0.8539     0.85391
   30          H           0.154936        0.8451     0.84506
   31          H           0.328499        0.6715     0.67150
   32          H           0.307023        0.6930     0.69298
   33          H           0.134981        0.8650     0.86502
   34          H           0.145993        0.8540     0.85401
   35          H           0.131039        0.8690     0.86896
   36          H           0.132363        0.8676     0.86764
   37          H           0.132589        0.8674     0.86741
   38          H           0.133239        0.8668     0.86676
   39          H           0.131973        0.8680     0.86803
   40          H           0.132324        0.8677     0.86768
   41          H           0.126449        0.8736     0.87355
   42          H           0.126495        0.8735     0.87350
   43          H           0.144547        0.8555     0.85545
   44          H           0.146735        0.8533     0.85326
   45          H           0.146529        0.8535     0.85347
 DIPOLE           X         Y         Z       TOTAL
 POINT-CHG.    -1.096     0.915    -0.815     1.644
 HYBRID        -0.581    -0.260     0.007     0.636
 SUM           -1.677     0.655    -0.807     1.973


          ATOMIC ORBITAL ELECTRON POPULATIONS

     Atom    s        px        py        pz   
    1  C   1.07460   0.81350   0.83308   0.76967
    2  C   1.10886   1.15624   1.05013   1.31868
    3  C   1.06727   0.87282   0.73943   0.78938
    4  C   1.09102   1.06691   1.03016   1.29314
    5  C   1.08151   0.88065   0.87831   0.78549
    6  C   1.10508   1.03628   1.12601   1.20323
    7  C   1.07134   0.74842   0.70293   0.76058
    8  O   1.81810   1.51027   1.65523   1.54807
    9  C   1.09999   0.88617   0.93915   0.85030
   10  C   1.10957   1.05064   1.17559   1.12527
   11  O   1.85234   1.71730   1.60389   1.34251
   12  O   1.80388   1.53604   1.32634   1.78871
   13  C   1.10247   1.01614   1.16724   1.08499
   14  O   1.80426   1.40869   1.49023   1.75019
   15  O   1.81664   1.94457   1.31681   1.47869
   16  C   1.08510   0.95417   1.15062   1.05168
   17  C   1.08754   0.97431   1.14141   1.06272
   18  C   1.08731   0.97232   1.14328   1.06026
   19  C   1.08797   0.97252   1.14277   1.06288
   20  C   1.08089   0.95743   1.13333   1.04954
   21  C   1.08229   1.06892   1.16669   1.14640
   22  H   0.80551
   23  H   0.79386
   24  H   0.66423
   25  H   0.84073
   26  H   0.82344
   27  H   0.81072
   28  H   0.66596
   29  H   0.85391
   30  H   0.84506
   31  H   0.67150
   32  H   0.69298
   33  H   0.86502
   34  H   0.85401
   35  H   0.86896
   36  H   0.86764
   37  H   0.86741
   38  H   0.86676
   39  H   0.86803
   40  H   0.86768
   41  H   0.87355
   42  H   0.87350
   43  H   0.85545
   44  H   0.85326
   45  H   0.85347

 **********************
 *                    *
 * JOB ENDED NORMALLY *
 *                    *
 **********************



 TOTAL JOB TIME:            17.78 SECONDS

 == MOPAC DONE ==
