 *******************************************************************************
 ** Site#: 35412        For non-commercial use only    Version 20.225L 64BITS **
 *******************************************************************************
 ** Cite this program as: MOPAC2016, Version: 20.225L, James J. P. Stewart,   **
 ** Stewart Computational Chemistry, web: HTTP://OpenMOPAC.net. Days left: 364**
 *******************************************************************************
 **                                                                           **
 **                                MOPAC2016                                  **
 **                                                                           **
 *******************************************************************************

                              PM6 CALCULATION RESULTS

 *******************************************************************************
 *  CALCULATION DONE:                                Fri Aug 14 20:44:18 2020  *
 *  PM6        - The PM6 Hamiltonian to be used
 *  SINGLET    - SPIN STATE DEFINED AS A SINGLET
 *  OPT        - OPTIMIZE COORDINATES OF ALL ATOMS
 *
 *
 *
 *                 CHARGE ON SYSTEM = 0
 *
 *
 *
 *  PRECISE    - CRITERIA TO BE INCREASED BY 100 TIMES
 *  T=         - A TIME OF 172800.0 SECONDS REQUESTED
 *  DUMP=N     - RESTART FILE WRITTEN EVERY 7200.0 SECONDS REQUESTED
 *  AUX        - OUTPUT AUXILIARY INFORMATION
 *  PRTXYZ     - PRINT CARTESIAN COORDINATES
 *  LARGE      - EXPANDED OUTPUT TO BE PRINTED
 *******************************************************************************
 AUX LARGE CHARGE=0 SINGLET  PM6  OPT PRECISE PRTXYZ
 CN393.pdb
 29
   ATOM   CHEMICAL          X               Y               Z
  NUMBER   SYMBOL      (ANGSTROMS)     (ANGSTROMS)     (ANGSTROMS)
 
     1       C          4.79500000  *  -5.97600000  *  -0.11500000  *
     2       C          4.79700000  *  -7.36400000  *  -0.19500000  *
     3       C          5.99500000  *  -8.06900000  *  -0.05200000  *
     4       C          7.17700000  *  -7.37400000  *   0.16300000  *
     5       C          7.17900000  *  -5.98800000  *   0.24600000  *
     6       C          5.98000000  *  -5.28400000  *   0.10700000  *
     7       C          8.45200000  *  -8.11200000  *   0.33100000  *
     8       O          9.65300000  *  -7.45900000  *   0.30300000  *
     9       C          9.59600000  *  -6.10800000  *  -0.18400000  *
    10       C          8.50300000  *  -5.30500000  *   0.50700000  *
    11       O          8.45300000  *  -9.32300000  *   0.56100000  *
    12       C          5.92400000  *  -3.78300000  *   0.19800000  *
    13       O          6.09700000  *  -9.46600000  *  -0.11800000  *
    14       C         10.96300000  *  -5.44700000  *   0.05400000  *
    15       C          4.91300000  * -10.15900000  *  -0.34800000  *
    16       H          3.86900000  *  -5.43700000  *  -0.22200000  *
    17       H          3.88100000  *  -7.86500000  *  -0.36200000  *
    18       H          9.38000000  *  -6.12800000  *  -1.26200000  *
    19       H          8.48900000  *  -4.27400000  *   0.14800000  *
    20       H          8.70600000  *  -5.30600000  *   1.58700000  *
    21       H          6.36100000  *  -3.46500000  *   1.15700000  *
    22       H          4.88600000  *  -3.42100000  *   0.10000000  *
    23       H          6.56100000  *  -3.35500000  *  -0.59200000  *
    24       H         10.94100000  *  -4.42000000  *  -0.33300000  *
    25       H         11.74300000  *  -6.02000000  *  -0.46700000  *
    26       H         11.17800000  *  -5.42900000  *   1.13200000  *
    27       H          5.12800000  * -11.23700000  *  -0.37900000  *
    28       H          4.48600000  *  -9.84500000  *  -1.31100000  *
    29       H          4.19700000  *  -9.95200000  *   0.46100000  *
 


          CARTESIAN COORDINATES 

    NO.       ATOM           X           Y           Z

     1         C          4.7950     -5.9760     -0.1150
     2         C          4.7970     -7.3640     -0.1950
     3         C          5.9950     -8.0690     -0.0520
     4         C          7.1770     -7.3740      0.1630
     5         C          7.1790     -5.9880      0.2460
     6         C          5.9800     -5.2840      0.1070
     7         C          8.4520     -8.1120      0.3310
     8         O          9.6530     -7.4590      0.3030
     9         C          9.5960     -6.1080     -0.1840
    10         C          8.5030     -5.3050      0.5070
    11         O          8.4530     -9.3230      0.5610
    12         C          5.9240     -3.7830      0.1980
    13         O          6.0970     -9.4660     -0.1180
    14         C         10.9630     -5.4470      0.0540
    15         C          4.9130    -10.1590     -0.3480
    16         H          3.8690     -5.4370     -0.2220
    17         H          3.8810     -7.8650     -0.3620
    18         H          9.3800     -6.1280     -1.2620
    19         H          8.4890     -4.2740      0.1480
    20         H          8.7060     -5.3060      1.5870
    21         H          6.3610     -3.4650      1.1570
    22         H          4.8860     -3.4210      0.1000
    23         H          6.5610     -3.3550     -0.5920
    24         H         10.9410     -4.4200     -0.3330
    25         H         11.7430     -6.0200     -0.4670
    26         H         11.1780     -5.4290      1.1320
    27         H          5.1280    -11.2370     -0.3790
    28         H          4.4860     -9.8450     -1.3110
    29         H          4.1970     -9.9520      0.4610

 General Reference for PM6:
 "Optimization of Parameters for Semiempirical Methods V: Modification of NDDO Approximations
 and Application to 70 Elements", J. J. P. Stewart, J. Mol. Mod., 13, 1173-1213 (2007)
 URL: https://link.springer.com/article/10.1007/s00894-007-0233-4

           Empirical Formula: C12 H14 O3  =    29 atoms



      MOLECULAR POINT GROUP   :   C1  


 SINGLET STATE CALCULATION


      RHF CALCULATION, NO. OF DOUBLY OCCUPIED LEVELS = 40


          Geometry optimization using EF

          DIAGONAL MATRIX USED AS START HESSIAN

 CYCLE:     1 TIME:   0.023 TIME LEFT:  2.00D  GRAD.:   148.706 HEAT: -105.2397
 CYCLE:     2 TIME:   0.039 TIME LEFT:  2.00D  GRAD.:   171.258 HEAT: -107.6258
 CYCLE:     3 TIME:   0.023 TIME LEFT:  2.00D  GRAD.:   149.553 HEAT: -107.7200
 CYCLE:     4 TIME:   0.016 TIME LEFT:  2.00D  GRAD.:    99.546 HEAT: -110.5051
 CYCLE:     5 TIME:   0.016 TIME LEFT:  2.00D  GRAD.:    67.426 HEAT: -111.9065
 CYCLE:     6 TIME:   0.023 TIME LEFT:  2.00D  GRAD.:    56.406 HEAT: -112.7085
 CYCLE:     7 TIME:   0.039 TIME LEFT:  2.00D  GRAD.:    41.359 HEAT: -113.3413
 CYCLE:     8 TIME:   0.023 TIME LEFT:  2.00D  GRAD.:    40.134 HEAT: -113.5397
 CYCLE:     9 TIME:   0.023 TIME LEFT:  2.00D  GRAD.:    42.373 HEAT: -113.6341
 CYCLE:    10 TIME:   0.016 TIME LEFT:  2.00D  GRAD.:    36.927 HEAT: -113.9823
 CYCLE:    11 TIME:   0.016 TIME LEFT:  2.00D  GRAD.:    40.546 HEAT: -114.1100
 CYCLE:    12 TIME:   0.016 TIME LEFT:  2.00D  GRAD.:    41.788 HEAT: -114.1408
 CYCLE:    13 TIME:   0.023 TIME LEFT:  2.00D  GRAD.:    29.652 HEAT: -114.4665
 CYCLE:    14 TIME:   0.023 TIME LEFT:  2.00D  GRAD.:    17.560 HEAT: -114.6628
 CYCLE:    15 TIME:   0.023 TIME LEFT:  2.00D  GRAD.:    16.719 HEAT: -114.7366
 CYCLE:    16 TIME:   0.023 TIME LEFT:  2.00D  GRAD.:    12.459 HEAT: -114.8892
 CYCLE:    17 TIME:   0.031 TIME LEFT:  2.00D  GRAD.:    16.741 HEAT: -114.9443
 CYCLE:    18 TIME:   0.016 TIME LEFT:  2.00D  GRAD.:    13.884 HEAT: -115.0497
 CYCLE:    19 TIME:   0.016 TIME LEFT:  2.00D  GRAD.:    18.105 HEAT: -115.0649
 CYCLE:    20 TIME:   0.023 TIME LEFT:  2.00D  GRAD.:    15.971 HEAT: -115.0973
 CYCLE:    21 TIME:   0.023 TIME LEFT:  2.00D  GRAD.:    14.086 HEAT: -115.1476
 CYCLE:    22 TIME:   0.047 TIME LEFT:  2.00D  GRAD.:     6.143 HEAT: -115.2046
 CYCLE:    23 TIME:   0.016 TIME LEFT:  2.00D  GRAD.:     7.700 HEAT: -115.2175
 CYCLE:    24 TIME:   0.016 TIME LEFT:  2.00D  GRAD.:     7.040 HEAT: -115.2454
 CYCLE:    25 TIME:   0.016 TIME LEFT:  2.00D  GRAD.:     9.307 HEAT: -115.2592
 CYCLE:    26 TIME:   0.016 TIME LEFT:  2.00D  GRAD.:     5.548 HEAT: -115.3007
 CYCLE:    27 TIME:   0.016 TIME LEFT:  2.00D  GRAD.:     8.930 HEAT: -115.3132
 CYCLE:    28 TIME:   0.023 TIME LEFT:  2.00D  GRAD.:     5.872 HEAT: -115.3374
 CYCLE:    29 TIME:   0.016 TIME LEFT:  2.00D  GRAD.:     4.653 HEAT: -115.3535
 CYCLE:    30 TIME:   0.016 TIME LEFT:  2.00D  GRAD.:     3.789 HEAT: -115.3681
 CYCLE:    31 TIME:   0.023 TIME LEFT:  2.00D  GRAD.:     3.434 HEAT: -115.3881
 CYCLE:    32 TIME:   0.016 TIME LEFT:  2.00D  GRAD.:     3.857 HEAT: -115.4068
 CYCLE:    33 TIME:   0.016 TIME LEFT:  2.00D  GRAD.:     3.400 HEAT: -115.4187
 CYCLE:    34 TIME:   0.016 TIME LEFT:  2.00D  GRAD.:     2.963 HEAT: -115.4282
 CYCLE:    35 TIME:   0.016 TIME LEFT:  2.00D  GRAD.:     2.407 HEAT: -115.4396
 CYCLE:    36 TIME:   0.016 TIME LEFT:  2.00D  GRAD.:     2.533 HEAT: -115.4483
 CYCLE:    37 TIME:   0.016 TIME LEFT:  2.00D  GRAD.:     2.000 HEAT: -115.4544
 CYCLE:    38 TIME:   0.016 TIME LEFT:  2.00D  GRAD.:     2.056 HEAT: -115.4606
 CYCLE:    39 TIME:   0.016 TIME LEFT:  2.00D  GRAD.:     1.901 HEAT: -115.4697
 CYCLE:    40 TIME:   0.023 TIME LEFT:  2.00D  GRAD.:     1.998 HEAT: -115.4736
 CYCLE:    41 TIME:   0.016 TIME LEFT:  2.00D  GRAD.:     1.728 HEAT: -115.4788
 CYCLE:    42 TIME:   0.016 TIME LEFT:  2.00D  GRAD.:     1.759 HEAT: -115.4845
 CYCLE:    43 TIME:   0.016 TIME LEFT:  2.00D  GRAD.:     1.314 HEAT: -115.4882
 CYCLE:    44 TIME:   0.016 TIME LEFT:  2.00D  GRAD.:     1.123 HEAT: -115.4915
 CYCLE:    45 TIME:   0.023 TIME LEFT:  2.00D  GRAD.:     1.230 HEAT: -115.4950
 CYCLE:    46 TIME:   0.016 TIME LEFT:  2.00D  GRAD.:     1.290 HEAT: -115.4969
 CYCLE:    47 TIME:   0.016 TIME LEFT:  2.00D  GRAD.:     0.974 HEAT: -115.4987
 CYCLE:    48 TIME:   0.016 TIME LEFT:  2.00D  GRAD.:     0.809 HEAT: -115.5000
 CYCLE:    49 TIME:   0.016 TIME LEFT:  2.00D  GRAD.:     0.718 HEAT: -115.5012
 CYCLE:    50 TIME:   0.016 TIME LEFT:  2.00D  GRAD.:     0.584 HEAT: -115.5019
 CYCLE:    51 TIME:   0.023 TIME LEFT:  2.00D  GRAD.:     0.594 HEAT: -115.5026
 CYCLE:    52 TIME:   0.016 TIME LEFT:  2.00D  GRAD.:     0.727 HEAT: -115.5031
 CYCLE:    53 TIME:   0.016 TIME LEFT:  2.00D  GRAD.:     0.648 HEAT: -115.5039
 CYCLE:    54 TIME:   0.016 TIME LEFT:  2.00D  GRAD.:     0.466 HEAT: -115.5045
 CYCLE:    55 TIME:   0.023 TIME LEFT:  2.00D  GRAD.:     0.481 HEAT: -115.5050
 CYCLE:    56 TIME:   0.016 TIME LEFT:  2.00D  GRAD.:     0.548 HEAT: -115.5054
 CYCLE:    57 TIME:   0.016 TIME LEFT:  2.00D  GRAD.:     0.555 HEAT: -115.5061
 CYCLE:    58 TIME:   0.023 TIME LEFT:  2.00D  GRAD.:     0.481 HEAT: -115.5068
 CYCLE:    59 TIME:   0.016 TIME LEFT:  2.00D  GRAD.:     0.469 HEAT: -115.5074
 CYCLE:    60 TIME:   0.016 TIME LEFT:  2.00D  GRAD.:     0.472 HEAT: -115.5079
 CYCLE:    61 TIME:   0.016 TIME LEFT:  2.00D  GRAD.:     0.428 HEAT: -115.5083
 CYCLE:    62 TIME:   0.016 TIME LEFT:  2.00D  GRAD.:     0.396 HEAT: -115.5087
 CYCLE:    63 TIME:   0.023 TIME LEFT:  2.00D  GRAD.:     0.390 HEAT: -115.5090
 CYCLE:    64 TIME:   0.016 TIME LEFT:  2.00D  GRAD.:     0.376 HEAT: -115.5093
 CYCLE:    65 TIME:   0.016 TIME LEFT:  2.00D  GRAD.:     0.343 HEAT: -115.5096
 CYCLE:    66 TIME:   0.023 TIME LEFT:  2.00D  GRAD.:     0.310 HEAT: -115.5099
 CYCLE:    67 TIME:   0.016 TIME LEFT:  2.00D  GRAD.:     0.265 HEAT: -115.5101
 CYCLE:    68 TIME:   0.016 TIME LEFT:  2.00D  GRAD.:     0.218 HEAT: -115.5102
 CYCLE:    69 TIME:   0.016 TIME LEFT:  2.00D  GRAD.:     0.179 HEAT: -115.5103
 CYCLE:    70 TIME:   0.016 TIME LEFT:  2.00D  GRAD.:     0.181 HEAT: -115.5104
 CYCLE:    71 TIME:   0.016 TIME LEFT:  2.00D  GRAD.:     0.204 HEAT: -115.5105
 CYCLE:    72 TIME:   0.016 TIME LEFT:  2.00D  GRAD.:     0.228 HEAT: -115.5106
 CYCLE:    73 TIME:   0.016 TIME LEFT:  2.00D  GRAD.:     0.226 HEAT: -115.5108
 CYCLE:    74 TIME:   0.023 TIME LEFT:  2.00D  GRAD.:     0.261 HEAT: -115.5110
 CYCLE:    75 TIME:   0.031 TIME LEFT:  2.00D  GRAD.:     0.236 HEAT: -115.5111
 CYCLE:    76 TIME:   0.016 TIME LEFT:  2.00D  GRAD.:     0.280 HEAT: -115.5113
 CYCLE:    77 TIME:   0.016 TIME LEFT:  2.00D  GRAD.:     0.237 HEAT: -115.5114
 CYCLE:    78 TIME:   0.023 TIME LEFT:  2.00D  GRAD.:     0.254 HEAT: -115.5117
 CYCLE:    79 TIME:   0.016 TIME LEFT:  2.00D  GRAD.:     0.167 HEAT: -115.5117
 CYCLE:    80 TIME:   0.023 TIME LEFT:  2.00D  GRAD.:     0.112 HEAT: -115.5118
 CYCLE:    81 TIME:   0.039 TIME LEFT:  2.00D  GRAD.:     0.137 HEAT: -115.5118
 CYCLE:    82 TIME:   0.016 TIME LEFT:  2.00D  GRAD.:     0.156 HEAT: -115.5119
 CYCLE:    83 TIME:   0.016 TIME LEFT:  2.00D  GRAD.:     0.164 HEAT: -115.5120
 CYCLE:    84 TIME:   0.016 TIME LEFT:  2.00D  GRAD.:     0.137 HEAT: -115.5120
 CYCLE:    85 TIME:   0.016 TIME LEFT:  2.00D  GRAD.:     0.134 HEAT: -115.5121
 CYCLE:    86 TIME:   0.023 TIME LEFT:  2.00D  GRAD.:     0.130 HEAT: -115.5121
 CYCLE:    87 TIME:   0.016 TIME LEFT:  2.00D  GRAD.:     0.113 HEAT: -115.5122
 CYCLE:    88 TIME:   0.016 TIME LEFT:  2.00D  GRAD.:     0.097 HEAT: -115.5122
 CYCLE:    89 TIME:   0.016 TIME LEFT:  2.00D  GRAD.:     0.106 HEAT: -115.5122
 CYCLE:    90 TIME:   0.023 TIME LEFT:  2.00D  GRAD.:     0.102 HEAT: -115.5123
 CYCLE:    91 TIME:   0.016 TIME LEFT:  2.00D  GRAD.:     0.095 HEAT: -115.5123
 CYCLE:    92 TIME:   0.016 TIME LEFT:  2.00D  GRAD.:     0.064 HEAT: -115.5123
 CYCLE:    93 TIME:   0.016 TIME LEFT:  2.00D  GRAD.:     0.208 HEAT: -115.5123
 CYCLE:    94 TIME:   0.023 TIME LEFT:  2.00D  GRAD.:     0.061 HEAT: -115.5123
 CYCLE:    95 TIME:   0.016 TIME LEFT:  2.00D  GRAD.:     0.049 HEAT: -115.5123

     GRADIENT =  0.04888 IS LESS THAN CUTOFF =  0.05000



 -------------------------------------------------------------------------------
 AUX LARGE CHARGE=0 SINGLET  PM6  OPT PRECISE PRTXYZ
 CN393.pdb
 29


     GEOMETRY OPTIMISED USING EIGENVECTOR FOLLOWING (EF).     
     SCF FIELD WAS ACHIEVED                                   


                              PM6 CALCULATION
                                                       MOPAC2016 (Version: 20.225L)
                                                       Fri Aug 14 20:44:20 2020
                                                       No. of days remaining = 364




          FINAL HEAT OF FORMATION =       -115.51234 KCAL/MOL =    -483.30365 KJ/MOL


          TOTAL ENERGY            =      -2534.57229 EV
          ELECTRONIC ENERGY       =     -15566.13275 EV  POINT GROUP:     C1  
          CORE-CORE REPULSION     =      13031.56047 EV
          COSMO AREA              =        235.21 SQUARE ANGSTROMS
          COSMO VOLUME            =        249.89 CUBIC ANGSTROMS

          GRADIENT NORM           =          0.04888 = 0.00908 PER ATOM
          IONIZATION POTENTIAL    =          8.989422 EV
          HOMO LUMO ENERGIES (EV) =         -8.989 -0.478
          NO. OF FILLED LEVELS    =         40
          MOLECULAR WEIGHT        =        206.2408

          MOLECULAR DIMENSIONS (Angstroms)

            Atom       Atom       Distance
            H    29    H    24     8.94223
            H    22    O    11     6.93003
            H    20    H    28     3.43292


          SCF CALCULATIONS        =        100
 
          WALL-CLOCK TIME         =          1.875 SECONDS
          COMPUTATION TIME        =          3.359 SECONDS




   ATOM   CHEMICAL          X               Y               Z
  NUMBER   SYMBOL      (ANGSTROMS)     (ANGSTROMS)     (ANGSTROMS)
 
     1       C          4.76427375  *  -5.97159705  *  -0.08909442  *
     2       C          4.74984663  *  -7.35795252  *  -0.19236507  *
     3       C          5.96100211  *  -8.06208840  *  -0.06701853  *
     4       C          7.17837459  *  -7.37934834  *   0.15866587  *
     5       C          7.16584991  *  -5.97110112  *   0.23251108  *
     6       C          5.95928941  *  -5.26005267  *   0.12205311  *
     7       C          8.43309039  *  -8.13270677  *   0.35942717  *
     8       O          9.62699017  *  -7.43816882  *   0.19468673  *
     9       C          9.61031155  *  -6.04985524  *  -0.25220656  *
    10       C          8.48082532  *  -5.28203976  *   0.44699015  *
    11       O          8.57002370  *  -9.28771300  *   0.67725642  *
    12       C          5.91779698  *  -3.76938330  *   0.22788478  *
    13       O          6.09155678  *  -9.41703934  *  -0.15842626  *
    14       C         10.99661868  *  -5.54231817  *   0.10548913  *
    15       C          4.89668373  * -10.21340712  *  -0.36612866  *
    16       H          3.82395297  *  -5.42283838  *  -0.17685264  *
    17       H          3.81400895  *  -7.88015311  *  -0.36191131  *
    18       H          9.44902526  *  -6.08865994  *  -1.35332041  *
    19       H          8.46743870  *  -4.23460690  *   0.08566132  *
    20       H          8.67818310  *  -5.21392564  *   1.54066325  *
    21       H          6.30976414  *  -3.42509969  *   1.19562275  *
    22       H          4.89801376  *  -3.37104419  *   0.14103965  *
    23       H          6.51187663  *  -3.29270999  *  -0.56481315  *
    24       H         11.16653492  *  -4.52395783  *  -0.25614447  *
    25       H         11.76804286  *  -6.19482791  *  -0.33188084  *
    26       H         11.16902085  *  -5.55966823  *   1.19010320  *
    27       H          5.31982282  * -11.22895189  *  -0.37798558  *
    28       H          4.43643911  *  -9.96772677  *  -1.32641845  *
    29       H          4.20540412  * -10.08960493  *   0.47169236  *

                             CARTESIAN COORDINATES

   1    C        4.764273750    -5.971597054    -0.089094425
   2    C        4.749846627    -7.357952521    -0.192365066
   3    C        5.961002111    -8.062088400    -0.067018527
   4    C        7.178374590    -7.379348341     0.158665872
   5    C        7.165849909    -5.971101124     0.232511085
   6    C        5.959289412    -5.260052667     0.122053112
   7    C        8.433090390    -8.132706767     0.359427166
   8    O        9.626990169    -7.438168819     0.194686735
   9    C        9.610311547    -6.049855243    -0.252206560
  10    C        8.480825317    -5.282039761     0.446990151
  11    O        8.570023705    -9.287713000     0.677256422
  12    C        5.917796984    -3.769383301     0.227884775
  13    O        6.091556785    -9.417039344    -0.158426260
  14    C       10.996618680    -5.542318166     0.105489128
  15    C        4.896683727   -10.213407117    -0.366128663
  16    H        3.823952974    -5.422838383    -0.176852643
  17    H        3.814008953    -7.880153111    -0.361911313
  18    H        9.449025261    -6.088659938    -1.353320413
  19    H        8.467438695    -4.234606897     0.085661317
  20    H        8.678183105    -5.213925639     1.540663252
  21    H        6.309764143    -3.425099695     1.195622746
  22    H        4.898013759    -3.371044186     0.141039650
  23    H        6.511876632    -3.292709992    -0.564813146
  24    H       11.166534925    -4.523957830    -0.256144473
  25    H       11.768042858    -6.194827908    -0.331880841
  26    H       11.169020845    -5.559668232     1.190103199
  27    H        5.319822820   -11.228951887    -0.377985583
  28    H        4.436439113    -9.967726769    -1.326418445
  29    H        4.205404121   -10.089604930     0.471692358


           Empirical Formula: C12 H14 O3  =    29 atoms



      MOLECULAR POINT GROUP   :   C1  


                  EIGENVALUES  
 -31.58960 -31.06142 -30.78546 -29.95822 -28.02403 -27.53533 -27.01387 -25.96841
 -24.23533 -23.74669 -22.98480 -21.99034 -20.37020 -19.41243 -18.41393 -17.63769
 -17.38995 -16.37209 -16.07580 -15.52220 -15.38357 -15.12640 -14.98147 -14.80662
 -14.56175 -14.10594 -13.82087 -13.69677 -13.51047 -13.28382 -13.24533 -12.79602
 -12.56742 -12.48404 -12.00596 -11.59033 -10.78418 -10.32439 -10.11321  -8.98942
  -0.47799   0.15530   1.27167   1.42672   1.64323   2.30889   2.94978   3.04686
   3.29693   3.50488   3.70203   3.98780   4.03707   4.28451   4.42681   4.62066
   4.79619   4.82792   4.97203   5.02460   5.05930   5.20601   5.25725   5.38133
   5.40070   5.46414   5.50815   5.54874   5.62775   5.66766   5.78636   5.91644
   6.35995   6.55006


              NET ATOMIC CHARGES AND DIPOLE CONTRIBUTIONS

  ATOM NO.   TYPE          CHARGE      No. of ELECS.   s-Pop       p-Pop       
    1          C           0.007639        3.9924     1.10771     2.88465
    2          C          -0.408274        4.4083     1.10527     3.30301
    3          C           0.417941        3.5821     1.08241     2.49965
    4          C          -0.423509        4.4235     1.10468     3.31883
    5          C           0.207530        3.7925     1.08933     2.70314
    6          C          -0.121295        4.1213     1.08424     3.03705
    7          C           0.692006        3.3080     1.07036     2.23763
    8          O          -0.490188        6.4902     1.84965     4.64054
    9          C           0.254108        3.7459     1.09593     2.64997
   10          C          -0.422861        4.4229     1.10180     3.32106
   11          O          -0.456132        6.4561     1.85133     4.60480
   12          C          -0.450382        4.4504     1.07645     3.37393
   13          O          -0.325586        6.3256     1.84175     4.48384
   14          C          -0.531473        4.5315     1.09122     3.44025
   15          C          -0.196666        4.1967     1.10672     3.08994
   16          H           0.142122        0.8579     0.85788
   17          H           0.177591        0.8224     0.82241
   18          H           0.116267        0.8837     0.88373
   19          H           0.174828        0.8252     0.82517
   20          H           0.187461        0.8125     0.81254
   21          H           0.159393        0.8406     0.84061
   22          H           0.156819        0.8432     0.84318
   23          H           0.157595        0.8424     0.84240
   24          H           0.162242        0.8378     0.83776
   25          H           0.182374        0.8176     0.81763
   26          H           0.176146        0.8239     0.82385
   27          H           0.171653        0.8283     0.82835
   28          H           0.140184        0.8598     0.85982
   29          H           0.142465        0.8575     0.85753
 DIPOLE           X         Y         Z       TOTAL
 POINT-CHG.    -3.812     4.742    -1.552     6.279
 HYBRID         0.167    -0.224     0.259     0.381
 SUM           -3.645     4.518    -1.293     5.948


          ATOMIC ORBITAL ELECTRON POPULATIONS

     Atom    s        px        py        pz   
    1  C   1.10771   1.02970   0.96894   0.88601
    2  C   1.10527   1.07203   1.03107   1.19990
    3  C   1.08241   0.91661   0.77086   0.81219
    4  C   1.10468   1.02677   1.02095   1.27111
    5  C   1.08933   0.93113   0.91315   0.85885
    6  C   1.08424   0.97203   0.95897   1.10606
    7  C   1.07036   0.78108   0.77963   0.67693
    8  O   1.84965   1.47643   1.35949   1.80462
    9  C   1.09593   0.91071   0.73316   1.00609
   10  C   1.10180   1.02848   1.12159   1.17099
   11  O   1.85133   1.81322   1.29246   1.49912
   12  C   1.07645   1.18201   1.02174   1.17018
   13  O   1.84175   1.39696   1.25626   1.83062
   14  C   1.09122   1.07752   1.16264   1.20010
   15  C   1.10672   0.93395   1.02294   1.13305
   16  H   0.85788
   17  H   0.82241
   18  H   0.88373
   19  H   0.82517
   20  H   0.81254
   21  H   0.84061
   22  H   0.84318
   23  H   0.84240
   24  H   0.83776
   25  H   0.81763
   26  H   0.82385
   27  H   0.82835
   28  H   0.85982
   29  H   0.85753

 **********************
 *                    *
 * JOB ENDED NORMALLY *
 *                    *
 **********************



 TOTAL JOB TIME:             1.95 SECONDS

 == MOPAC DONE ==
