 *******************************************************************************
 ** Site#: 35412        For non-commercial use only    Version 20.225L 64BITS **
 *******************************************************************************
 ** Cite this program as: MOPAC2016, Version: 20.225L, James J. P. Stewart,   **
 ** Stewart Computational Chemistry, web: HTTP://OpenMOPAC.net. Days left: 364**
 *******************************************************************************
 **                                                                           **
 **                                MOPAC2016                                  **
 **                                                                           **
 *******************************************************************************

                              PM6 CALCULATION RESULTS

 *******************************************************************************
 *  CALCULATION DONE:                                Fri Aug 14 20:44:20 2020  *
 *  PM6        - The PM6 Hamiltonian to be used
 *  SINGLET    - SPIN STATE DEFINED AS A SINGLET
 *  OPT        - OPTIMIZE COORDINATES OF ALL ATOMS
 *
 *
 *
 *                 CHARGE ON SYSTEM = 0
 *
 *
 *
 *  PRECISE    - CRITERIA TO BE INCREASED BY 100 TIMES
 *  T=         - A TIME OF 172800.0 SECONDS REQUESTED
 *  DUMP=N     - RESTART FILE WRITTEN EVERY 7200.0 SECONDS REQUESTED
 *  AUX        - OUTPUT AUXILIARY INFORMATION
 *  PRTXYZ     - PRINT CARTESIAN COORDINATES
 *  LARGE      - EXPANDED OUTPUT TO BE PRINTED
 *******************************************************************************
 AUX LARGE CHARGE=0 SINGLET  PM6  OPT PRECISE PRTXYZ
 CN394.pdb
 33
   ATOM   CHEMICAL          X               Y               Z
  NUMBER   SYMBOL      (ANGSTROMS)     (ANGSTROMS)     (ANGSTROMS)
 
     1       C         -1.63600000  *   1.16900000  *   0.51500000  *
     2       C         -1.38400000  *  -0.36300000  *   1.05800000  *
     3       C         -0.63300000  *  -0.92900000  *   0.02400000  *
     4       C          0.80300000  *  -0.14000000  *   0.17700000  *
     5       C          0.69500000  *   1.42900000  *   0.51700000  *
     6       C         -0.38600000  *   1.88600000  *  -0.26000000  *
     7       O          1.63200000  *  -0.62200000  *   1.22800000  *
     8       O          1.95400000  *   1.97100000  *   0.26300000  *
     9       C         -0.63900000  *   3.39700000  *  -0.25700000  *
    10       C         -0.36700000  *  -2.47000000  *   0.04700000  *
    11       C          0.49200000  *  -2.89400000  *  -1.16800000  *
    12       C         -1.70200000  *  -3.24900000  *  -0.03400000  *
    13       O         -0.16300000  *   1.49900000  *  -1.65900000  *
    14       H         -2.50900000  *   1.26300000  *  -0.14800000  *
    15       H         -1.84300000  *   1.70000000  *   1.45600000  *
    16       H         -0.76900000  *  -0.43300000  *   1.96800000  *
    17       H         -2.36600000  *  -0.82100000  *   1.23000000  *
    18       H         -1.17600000  *  -0.66100000  *  -0.89600000  *
    19       H          1.29600000  *  -0.31700000  *  -0.78900000  *
    20       H          0.39400000  *   1.63900000  *   1.55800000  *
    21       H          1.19600000  *  -0.47300000  *   2.10300000  *
    22       H          2.62300000  *   1.53400000  *   0.85600000  *
    23       H          0.22900000  *   3.91300000  *  -0.69500000  *
    24       H         -0.78500000  *   3.73900000  *   0.77800000  *
    25       H         -1.53700000  *   3.61800000  *  -0.84800000  *
    26       H          0.15700000  *  -2.73100000  *   0.97700000  *
    27       H          0.65600000  *  -3.97800000  *  -1.13300000  *
    28       H          1.46400000  *  -2.38400000  *  -1.15000000  *
    29       H         -0.04000000  *  -2.63500000  *  -2.09500000  *
    30       H         -1.49400000  *  -4.33200000  *  -0.01400000  *
    31       H         -2.21900000  *  -2.99600000  *  -0.97200000  *
    32       H         -2.34200000  *  -2.98800000  *   0.81900000  *
    33       H         -0.04400000  *   0.55000000  *  -1.79300000  *
 


          CARTESIAN COORDINATES 

    NO.       ATOM           X           Y           Z

     1         C         -1.6360      1.1690      0.5150
     2         C         -1.3840     -0.3630      1.0580
     3         C         -0.6330     -0.9290      0.0240
     4         C          0.8030     -0.1400      0.1770
     5         C          0.6950      1.4290      0.5170
     6         C         -0.3860      1.8860     -0.2600
     7         O          1.6320     -0.6220      1.2280
     8         O          1.9540      1.9710      0.2630
     9         C         -0.6390      3.3970     -0.2570
    10         C         -0.3670     -2.4700      0.0470
    11         C          0.4920     -2.8940     -1.1680
    12         C         -1.7020     -3.2490     -0.0340
    13         O         -0.1630      1.4990     -1.6590
    14         H         -2.5090      1.2630     -0.1480
    15         H         -1.8430      1.7000      1.4560
    16         H         -0.7690     -0.4330      1.9680
    17         H         -2.3660     -0.8210      1.2300
    18         H         -1.1760     -0.6610     -0.8960
    19         H          1.2960     -0.3170     -0.7890
    20         H          0.3940      1.6390      1.5580
    21         H          1.1960     -0.4730      2.1030
    22         H          2.6230      1.5340      0.8560
    23         H          0.2290      3.9130     -0.6950
    24         H         -0.7850      3.7390      0.7780
    25         H         -1.5370      3.6180     -0.8480
    26         H          0.1570     -2.7310      0.9770
    27         H          0.6560     -3.9780     -1.1330
    28         H          1.4640     -2.3840     -1.1500
    29         H         -0.0400     -2.6350     -2.0950
    30         H         -1.4940     -4.3320     -0.0140
    31         H         -2.2190     -2.9960     -0.9720
    32         H         -2.3420     -2.9880      0.8190
    33         H         -0.0440      0.5500     -1.7930

 General Reference for PM6:
 "Optimization of Parameters for Semiempirical Methods V: Modification of NDDO Approximations
 and Application to 70 Elements", J. J. P. Stewart, J. Mol. Mod., 13, 1173-1213 (2007)
 URL: https://link.springer.com/article/10.1007/s00894-007-0233-4

           Empirical Formula: C10 H20 O3  =    33 atoms



      MOLECULAR POINT GROUP   :   C1  


 SINGLET STATE CALCULATION


      RHF CALCULATION, NO. OF DOUBLY OCCUPIED LEVELS = 39


          Geometry optimization using EF

          DIAGONAL MATRIX USED AS START HESSIAN

 CYCLE:     1 TIME:   0.031 TIME LEFT:  2.00D  GRAD.:   256.477 HEAT: -120.5665
 CYCLE:     2 TIME:   0.023 TIME LEFT:  2.00D  GRAD.:   145.634 HEAT: -133.9884
 CYCLE:     3 TIME:   0.023 TIME LEFT:  2.00D  GRAD.:   149.209 HEAT: -138.5571
 CYCLE:     4 TIME:   0.086 TIME LEFT:  2.00D  GRAD.:   134.371 HEAT: -145.1111
 CYCLE:     5 TIME:   0.047 TIME LEFT:  2.00D  GRAD.:    68.961 HEAT: -151.4338
 CYCLE:     6 TIME:   0.023 TIME LEFT:  2.00D  GRAD.:   112.782 HEAT: -152.3719
 CYCLE:     7 TIME:   0.016 TIME LEFT:  2.00D  GRAD.:    67.799 HEAT: -158.2910
 CYCLE:     8 TIME:   0.039 TIME LEFT:  2.00D  GRAD.:    90.810 HEAT: -159.0996
 CYCLE:     9 TIME:   0.016 TIME LEFT:  2.00D  GRAD.:    62.222 HEAT: -162.7771
 CYCLE:    10 TIME:   0.039 TIME LEFT:  2.00D  GRAD.:    62.226 HEAT: -163.6482
 CYCLE:    11 TIME:   0.016 TIME LEFT:  2.00D  GRAD.:    60.091 HEAT: -164.7604
 CYCLE:    12 TIME:   0.023 TIME LEFT:  2.00D  GRAD.:    77.404 HEAT: -164.9100
 CYCLE:    13 TIME:   0.016 TIME LEFT:  2.00D  GRAD.:    57.930 HEAT: -166.4263
 CYCLE:    14 TIME:   0.031 TIME LEFT:  2.00D  GRAD.:    44.733 HEAT: -167.2731
 CYCLE:    15 TIME:   0.023 TIME LEFT:  2.00D  GRAD.:    28.220 HEAT: -168.2161
 CYCLE:    16 TIME:   0.031 TIME LEFT:  2.00D  GRAD.:    35.998 HEAT: -168.5903
 CYCLE:    17 TIME:   0.023 TIME LEFT:  2.00D  GRAD.:    29.768 HEAT: -169.2306
 CYCLE:    18 TIME:   0.016 TIME LEFT:  2.00D  GRAD.:    35.561 HEAT: -169.7007
 CYCLE:    19 TIME:   0.039 TIME LEFT:  2.00D  GRAD.:    39.345 HEAT: -169.9265
 CYCLE:    20 TIME:   0.016 TIME LEFT:  2.00D  GRAD.:    22.524 HEAT: -170.6396
 CYCLE:    21 TIME:   0.023 TIME LEFT:  2.00D  GRAD.:    30.856 HEAT: -170.8571
 CYCLE:    22 TIME:   0.023 TIME LEFT:  2.00D  GRAD.:    34.820 HEAT: -171.0937
 CYCLE:    23 TIME:   0.023 TIME LEFT:  2.00D  GRAD.:    26.658 HEAT: -171.5490
 CYCLE:    24 TIME:   0.031 TIME LEFT:  2.00D  GRAD.:    23.291 HEAT: -171.8931
 CYCLE:    25 TIME:   0.031 TIME LEFT:  2.00D  GRAD.:    22.375 HEAT: -172.2423
 CYCLE:    26 TIME:   0.023 TIME LEFT:  2.00D  GRAD.:    19.071 HEAT: -172.6144
 CYCLE:    27 TIME:   0.086 TIME LEFT:  2.00D  GRAD.:    29.746 HEAT: -172.7357
 CYCLE:    28 TIME:   0.078 TIME LEFT:  2.00D  GRAD.:    29.899 HEAT: -172.8247
 CYCLE:    29 TIME:   0.016 TIME LEFT:  2.00D  GRAD.:    16.524 HEAT: -173.1095
 CYCLE:    30 TIME:   0.023 TIME LEFT:  2.00D  GRAD.:    16.770 HEAT: -173.1731
 CYCLE:    31 TIME:   0.023 TIME LEFT:  2.00D  GRAD.:    15.387 HEAT: -173.2452
 CYCLE:    32 TIME:   0.031 TIME LEFT:  2.00D  GRAD.:     9.336 HEAT: -173.3524
 CYCLE:    33 TIME:   0.016 TIME LEFT:  2.00D  GRAD.:     7.148 HEAT: -173.4246
 CYCLE:    34 TIME:   0.023 TIME LEFT:  2.00D  GRAD.:     6.703 HEAT: -173.5088
 CYCLE:    35 TIME:   0.016 TIME LEFT:  2.00D  GRAD.:     7.052 HEAT: -173.6158
 CYCLE:    36 TIME:   0.016 TIME LEFT:  2.00D  GRAD.:     6.790 HEAT: -173.6979
 CYCLE:    37 TIME:   0.023 TIME LEFT:  2.00D  GRAD.:     6.425 HEAT: -173.7833
 CYCLE:    38 TIME:   0.016 TIME LEFT:  2.00D  GRAD.:     7.016 HEAT: -173.8937
 CYCLE:    39 TIME:   0.016 TIME LEFT:  2.00D  GRAD.:     5.966 HEAT: -173.9480
 CYCLE:    40 TIME:   0.016 TIME LEFT:  2.00D  GRAD.:     4.830 HEAT: -173.9901
 CYCLE:    41 TIME:   0.016 TIME LEFT:  2.00D  GRAD.:     5.845 HEAT: -174.0693
 CYCLE:    42 TIME:   0.016 TIME LEFT:  2.00D  GRAD.:     6.577 HEAT: -174.1152
 CYCLE:    43 TIME:   0.016 TIME LEFT:  2.00D  GRAD.:     4.549 HEAT: -174.1476
 CYCLE:    44 TIME:   0.023 TIME LEFT:  2.00D  GRAD.:     3.574 HEAT: -174.1674
 CYCLE:    45 TIME:   0.016 TIME LEFT:  2.00D  GRAD.:     2.639 HEAT: -174.1819
 CYCLE:    46 TIME:   0.016 TIME LEFT:  2.00D  GRAD.:     2.593 HEAT: -174.1989
 CYCLE:    47 TIME:   0.023 TIME LEFT:  2.00D  GRAD.:     2.531 HEAT: -174.2087
 CYCLE:    48 TIME:   0.016 TIME LEFT:  2.00D  GRAD.:     1.957 HEAT: -174.2179
 CYCLE:    49 TIME:   0.023 TIME LEFT:  2.00D  GRAD.:     2.137 HEAT: -174.2305
 CYCLE:    50 TIME:   0.016 TIME LEFT:  2.00D  GRAD.:     2.963 HEAT: -174.2422
 CYCLE:    51 TIME:   0.016 TIME LEFT:  2.00D  GRAD.:     3.413 HEAT: -174.2597
 CYCLE:    52 TIME:   0.023 TIME LEFT:  2.00D  GRAD.:     3.531 HEAT: -174.2854
 CYCLE:    53 TIME:   0.016 TIME LEFT:  2.00D  GRAD.:     4.112 HEAT: -174.3212
 CYCLE:    54 TIME:   0.023 TIME LEFT:  2.00D  GRAD.:     5.020 HEAT: -174.3615
 CYCLE:    55 TIME:   0.016 TIME LEFT:  2.00D  GRAD.:     6.638 HEAT: -174.4167
 CYCLE:    56 TIME:   0.016 TIME LEFT:  2.00D  GRAD.:     7.373 HEAT: -174.5049
 CYCLE:    57 TIME:   0.023 TIME LEFT:  2.00D  GRAD.:    10.569 HEAT: -174.6516
 CYCLE:    58 TIME:   0.016 TIME LEFT:  2.00D  GRAD.:    13.830 HEAT: -174.8885
 CYCLE:    59 TIME:   0.023 TIME LEFT:  2.00D  GRAD.:    15.028 HEAT: -175.1542
 CYCLE:    60 TIME:   0.016 TIME LEFT:  2.00D  GRAD.:    33.123 HEAT: -175.1801
 CYCLE:    61 TIME:   0.039 TIME LEFT:  2.00D  GRAD.:    28.436 HEAT: -175.7135
 CYCLE:    62 TIME:   0.031 TIME LEFT:  2.00D  GRAD.:    16.571 HEAT: -176.1047
 CYCLE:    63 TIME:   0.023 TIME LEFT:  2.00D  GRAD.:    13.907 HEAT: -176.4014
 CYCLE:    64 TIME:   0.016 TIME LEFT:  2.00D  GRAD.:    18.173 HEAT: -176.6419
 CYCLE:    65 TIME:   0.016 TIME LEFT:  2.00D  GRAD.:    20.557 HEAT: -176.9301
 CYCLE:    66 TIME:   0.023 TIME LEFT:  2.00D  GRAD.:    11.983 HEAT: -177.3056
 CYCLE:    67 TIME:   0.016 TIME LEFT:  2.00D  GRAD.:    13.548 HEAT: -177.6780
 CYCLE:    68 TIME:   0.016 TIME LEFT:  2.00D  GRAD.:    12.065 HEAT: -178.0944
 CYCLE:    69 TIME:   0.023 TIME LEFT:  2.00D  GRAD.:    10.270 HEAT: -178.2872
 CYCLE:    70 TIME:   0.023 TIME LEFT:  2.00D  GRAD.:    16.605 HEAT: -178.3489
 CYCLE:    71 TIME:   0.023 TIME LEFT:  2.00D  GRAD.:     6.666 HEAT: -178.5737
 CYCLE:    72 TIME:   0.016 TIME LEFT:  2.00D  GRAD.:     5.619 HEAT: -178.6438
 CYCLE:    73 TIME:   0.023 TIME LEFT:  2.00D  GRAD.:     4.431 HEAT: -178.7228
 CYCLE:    74 TIME:   0.016 TIME LEFT:  2.00D  GRAD.:     3.847 HEAT: -178.7560
 CYCLE:    75 TIME:   0.023 TIME LEFT:  2.00D  GRAD.:     2.922 HEAT: -178.7981
 CYCLE:    76 TIME:   0.016 TIME LEFT:  2.00D  GRAD.:     2.369 HEAT: -178.8175
 CYCLE:    77 TIME:   0.023 TIME LEFT:  2.00D  GRAD.:     1.963 HEAT: -178.8298
 CYCLE:    78 TIME:   0.016 TIME LEFT:  2.00D  GRAD.:     1.695 HEAT: -178.8389
 CYCLE:    79 TIME:   0.039 TIME LEFT:  2.00D  GRAD.:     1.729 HEAT: -178.8470
 CYCLE:    80 TIME:   0.023 TIME LEFT:  2.00D  GRAD.:     1.920 HEAT: -178.8557
 CYCLE:    81 TIME:   0.016 TIME LEFT:  2.00D  GRAD.:     1.907 HEAT: -178.8650
 CYCLE:    82 TIME:   0.023 TIME LEFT:  2.00D  GRAD.:     1.749 HEAT: -178.8743
 CYCLE:    83 TIME:   0.016 TIME LEFT:  2.00D  GRAD.:     1.887 HEAT: -178.8836
 CYCLE:    84 TIME:   0.031 TIME LEFT:  2.00D  GRAD.:     2.079 HEAT: -178.8931
 CYCLE:    85 TIME:   0.031 TIME LEFT:  2.00D  GRAD.:     2.074 HEAT: -178.9035
 CYCLE:    86 TIME:   0.016 TIME LEFT:  2.00D  GRAD.:     1.965 HEAT: -178.9135
 CYCLE:    87 TIME:   0.016 TIME LEFT:  2.00D  GRAD.:     1.949 HEAT: -178.9236
 CYCLE:    88 TIME:   0.023 TIME LEFT:  2.00D  GRAD.:     2.069 HEAT: -178.9338
 CYCLE:    89 TIME:   0.016 TIME LEFT:  2.00D  GRAD.:     2.167 HEAT: -178.9440
 CYCLE:    90 TIME:   0.016 TIME LEFT:  2.00D  GRAD.:     1.931 HEAT: -178.9533
 CYCLE:    91 TIME:   0.016 TIME LEFT:  2.00D  GRAD.:     1.820 HEAT: -178.9618
 CYCLE:    92 TIME:   0.023 TIME LEFT:  2.00D  GRAD.:     1.947 HEAT: -178.9702
 CYCLE:    93 TIME:   0.016 TIME LEFT:  2.00D  GRAD.:     2.126 HEAT: -178.9797
 CYCLE:    94 TIME:   0.023 TIME LEFT:  2.00D  GRAD.:     1.912 HEAT: -178.9893
 CYCLE:    95 TIME:   0.016 TIME LEFT:  2.00D  GRAD.:     1.631 HEAT: -178.9972
 CYCLE:    96 TIME:   0.016 TIME LEFT:  2.00D  GRAD.:     1.618 HEAT: -179.0038
 CYCLE:    97 TIME:   0.023 TIME LEFT:  2.00D  GRAD.:     1.890 HEAT: -179.0105
 CYCLE:    98 TIME:   0.016 TIME LEFT:  2.00D  GRAD.:     2.203 HEAT: -179.0192
 CYCLE:    99 TIME:   0.016 TIME LEFT:  2.00D  GRAD.:     2.281 HEAT: -179.0300
 CYCLE:   100 TIME:   0.023 TIME LEFT:  2.00D  GRAD.:     2.306 HEAT: -179.0426
 CYCLE:   101 TIME:   0.016 TIME LEFT:  2.00D  GRAD.:     2.374 HEAT: -179.0535
 CYCLE:   102 TIME:   0.016 TIME LEFT:  2.00D  GRAD.:     2.218 HEAT: -179.0639
 CYCLE:   103 TIME:   0.016 TIME LEFT:  2.00D  GRAD.:     1.969 HEAT: -179.0737
 CYCLE:   104 TIME:   0.023 TIME LEFT:  2.00D  GRAD.:     1.754 HEAT: -179.0829
 CYCLE:   105 TIME:   0.016 TIME LEFT:  2.00D  GRAD.:     1.790 HEAT: -179.0913
 CYCLE:   106 TIME:   0.023 TIME LEFT:  2.00D  GRAD.:     1.942 HEAT: -179.0998
 CYCLE:   107 TIME:   0.016 TIME LEFT:  2.00D  GRAD.:     2.133 HEAT: -179.1090
 CYCLE:   108 TIME:   0.016 TIME LEFT:  2.00D  GRAD.:     2.327 HEAT: -179.1175
 CYCLE:   109 TIME:   0.016 TIME LEFT:  2.00D  GRAD.:     1.952 HEAT: -179.1264
 CYCLE:   110 TIME:   0.016 TIME LEFT:  2.00D  GRAD.:     1.614 HEAT: -179.1345
 CYCLE:   111 TIME:   0.023 TIME LEFT:  2.00D  GRAD.:     1.553 HEAT: -179.1411
 CYCLE:   112 TIME:   0.016 TIME LEFT:  2.00D  GRAD.:     1.400 HEAT: -179.1460
 CYCLE:   113 TIME:   0.023 TIME LEFT:  2.00D  GRAD.:     1.344 HEAT: -179.1517
 CYCLE:   114 TIME:   0.016 TIME LEFT:  2.00D  GRAD.:     1.353 HEAT: -179.1564
 CYCLE:   115 TIME:   0.016 TIME LEFT:  2.00D  GRAD.:     1.225 HEAT: -179.1605
 CYCLE:   116 TIME:   0.016 TIME LEFT:  2.00D  GRAD.:     1.137 HEAT: -179.1637
 CYCLE:   117 TIME:   0.016 TIME LEFT:  2.00D  GRAD.:     1.125 HEAT: -179.1667
 CYCLE:   118 TIME:   0.023 TIME LEFT:  2.00D  GRAD.:     1.266 HEAT: -179.1698
 CYCLE:   119 TIME:   0.016 TIME LEFT:  2.00D  GRAD.:     1.247 HEAT: -179.1736
 CYCLE:   120 TIME:   0.016 TIME LEFT:  2.00D  GRAD.:     1.256 HEAT: -179.1777
 CYCLE:   121 TIME:   0.016 TIME LEFT:  2.00D  GRAD.:     1.270 HEAT: -179.1820
 CYCLE:   122 TIME:   0.016 TIME LEFT:  2.00D  GRAD.:     1.207 HEAT: -179.1856
 CYCLE:   123 TIME:   0.023 TIME LEFT:  2.00D  GRAD.:     1.138 HEAT: -179.1892
 CYCLE:   124 TIME:   0.016 TIME LEFT:  2.00D  GRAD.:     1.004 HEAT: -179.1928
 CYCLE:   125 TIME:   0.023 TIME LEFT:  2.00D  GRAD.:     0.858 HEAT: -179.1953
 CYCLE:   126 TIME:   0.023 TIME LEFT:  2.00D  GRAD.:     0.679 HEAT: -179.1966
 CYCLE:   127 TIME:   0.016 TIME LEFT:  2.00D  GRAD.:     0.607 HEAT: -179.1977
 CYCLE:   128 TIME:   0.016 TIME LEFT:  2.00D  GRAD.:     0.656 HEAT: -179.1979
 CYCLE:   129 TIME:   0.023 TIME LEFT:  2.00D  GRAD.:     0.460 HEAT: -179.1985
 CYCLE:   130 TIME:   0.016 TIME LEFT:  2.00D  GRAD.:     0.302 HEAT: -179.1990
 CYCLE:   131 TIME:   0.023 TIME LEFT:  2.00D  GRAD.:     0.281 HEAT: -179.1991
 CYCLE:   132 TIME:   0.016 TIME LEFT:  2.00D  GRAD.:     0.307 HEAT: -179.1995
 CYCLE:   133 TIME:   0.031 TIME LEFT:  2.00D  GRAD.:     0.288 HEAT: -179.1996
 CYCLE:   134 TIME:   0.023 TIME LEFT:  2.00D  GRAD.:     0.300 HEAT: -179.1999
 CYCLE:   135 TIME:   0.023 TIME LEFT:  2.00D  GRAD.:     0.250 HEAT: -179.1999
 CYCLE:   136 TIME:   0.023 TIME LEFT:  2.00D  GRAD.:     1.246 HEAT: -179.1981
 CYCLE:   137 TIME:   0.016 TIME LEFT:  2.00D  GRAD.:     0.235 HEAT: -179.2002
 CYCLE:   138 TIME:   0.016 TIME LEFT:  2.00D  GRAD.:     0.207 HEAT: -179.2002
 CYCLE:   139 TIME:   0.023 TIME LEFT:  2.00D  GRAD.:     0.433 HEAT: -179.2002
 CYCLE:   140 TIME:   0.031 TIME LEFT:  2.00D  GRAD.:     0.253 HEAT: -179.2004
 CYCLE:   141 TIME:   0.023 TIME LEFT:  2.00D  GRAD.:     0.166 HEAT: -179.2004
 CYCLE:   142 TIME:   0.023 TIME LEFT:  2.00D  GRAD.:     0.128 HEAT: -179.2005
 CYCLE:   143 TIME:   0.016 TIME LEFT:  2.00D  GRAD.:     0.127 HEAT: -179.2005
 CYCLE:   144 TIME:   0.023 TIME LEFT:  2.00D  GRAD.:     0.313 HEAT: -179.2006
 CYCLE:   145 TIME:   0.016 TIME LEFT:  2.00D  GRAD.:     0.205 HEAT: -179.2006
 CYCLE:   146 TIME:   0.016 TIME LEFT:  2.00D  GRAD.:     0.141 HEAT: -179.2006
 CYCLE:   147 TIME:   0.016 TIME LEFT:  2.00D  GRAD.:     0.184 HEAT: -179.2007
 CYCLE:   148 TIME:   0.016 TIME LEFT:  2.00D  GRAD.:     0.179 HEAT: -179.2007
 CYCLE:   149 TIME:   0.016 TIME LEFT:  2.00D  GRAD.:     0.253 HEAT: -179.2007
 CYCLE:   150 TIME:   0.023 TIME LEFT:  2.00D  GRAD.:     0.155 HEAT: -179.2008
 CYCLE:   151 TIME:   0.016 TIME LEFT:  2.00D  GRAD.:     0.095 HEAT: -179.2008
 CYCLE:   152 TIME:   0.016 TIME LEFT:  2.00D  GRAD.:     0.150 HEAT: -179.2009
 CYCLE:   153 TIME:   0.039 TIME LEFT:  2.00D  GRAD.:     1.356 HEAT: -179.1936
 CYCLE:   154 TIME:   0.023 TIME LEFT:  2.00D  GRAD.:     0.343 HEAT: -179.2010
 CYCLE:   155 TIME:   0.023 TIME LEFT:  2.00D  GRAD.:     0.117 HEAT: -179.2010
 CYCLE:   156 TIME:   0.016 TIME LEFT:  2.00D  GRAD.:     0.111 HEAT: -179.2010
 CYCLE:   157 TIME:   0.016 TIME LEFT:  2.00D  GRAD.:     0.159 HEAT: -179.2010
 CYCLE:   158 TIME:   0.023 TIME LEFT:  2.00D  GRAD.:     0.106 HEAT: -179.2011
 CYCLE:   159 TIME:   0.016 TIME LEFT:  2.00D  GRAD.:     0.090 HEAT: -179.2011
 CYCLE:   160 TIME:   0.016 TIME LEFT:  2.00D  GRAD.:     0.080 HEAT: -179.2012
 CYCLE:   161 TIME:   0.023 TIME LEFT:  2.00D  GRAD.:     0.080 HEAT: -179.2012
 CYCLE:   162 TIME:   0.016 TIME LEFT:  2.00D  GRAD.:     0.229 HEAT: -179.2012
 CYCLE:   163 TIME:   0.016 TIME LEFT:  2.00D  GRAD.:     0.210 HEAT: -179.2012
 CYCLE:   164 TIME:   0.023 TIME LEFT:  2.00D  GRAD.:     0.188 HEAT: -179.2012
 CYCLE:   165 TIME:   0.016 TIME LEFT:  2.00D  GRAD.:     0.330 HEAT: -179.2012
 CYCLE:   166 TIME:   0.016 TIME LEFT:  2.00D  GRAD.:     0.095 HEAT: -179.2012
 CYCLE:   167 TIME:   0.016 TIME LEFT:  2.00D  GRAD.:     0.064 HEAT: -179.2013
 CYCLE:   168 TIME:   0.023 TIME LEFT:  2.00D  GRAD.:     0.061 HEAT: -179.2013
 CYCLE:   169 TIME:   0.016 TIME LEFT:  2.00D  GRAD.:     0.089 HEAT: -179.2013
 CYCLE:   170 TIME:   0.016 TIME LEFT:  2.00D  GRAD.:     0.161 HEAT: -179.2014
 CYCLE:   171 TIME:   0.016 TIME LEFT:  2.00D  GRAD.:     0.175 HEAT: -179.2014
 CYCLE:   172 TIME:   0.023 TIME LEFT:  2.00D  GRAD.:     0.140 HEAT: -179.2015
 CYCLE:   173 TIME:   0.023 TIME LEFT:  2.00D  GRAD.:     0.112 HEAT: -179.2015
 CYCLE:   174 TIME:   0.016 TIME LEFT:  2.00D  GRAD.:     0.258 HEAT: -179.2015
 CYCLE:   175 TIME:   0.016 TIME LEFT:  2.00D  GRAD.:     0.144 HEAT: -179.2015
 CYCLE:   176 TIME:   0.016 TIME LEFT:  2.00D  GRAD.:     0.154 HEAT: -179.2015
 CYCLE:   177 TIME:   0.023 TIME LEFT:  2.00D  GRAD.:     0.141 HEAT: -179.2015
 CYCLE:   178 TIME:   0.023 TIME LEFT:  2.00D  GRAD.:     0.308 HEAT: -179.2015
 CYCLE:   179 TIME:   0.023 TIME LEFT:  2.00D  GRAD.:     0.216 HEAT: -179.2015
 CYCLE:   180 TIME:   0.016 TIME LEFT:  2.00D  GRAD.:     0.094 HEAT: -179.2016
 CYCLE:   181 TIME:   0.016 TIME LEFT:  2.00D  GRAD.:     0.087 HEAT: -179.2016
 CYCLE:   182 TIME:   0.023 TIME LEFT:  2.00D  GRAD.:     0.217 HEAT: -179.2016
 CYCLE:   183 TIME:   0.023 TIME LEFT:  2.00D  GRAD.:     0.126 HEAT: -179.2016
 CYCLE:   184 TIME:   0.016 TIME LEFT:  2.00D  GRAD.:     0.108 HEAT: -179.2016
 CYCLE:   185 TIME:   0.016 TIME LEFT:  2.00D  GRAD.:     0.099 HEAT: -179.2016
 CYCLE:   186 TIME:   0.023 TIME LEFT:  2.00D  GRAD.:     0.093 HEAT: -179.2016
 CYCLE:   187 TIME:   0.023 TIME LEFT:  2.00D  GRAD.:     0.337 HEAT: -179.2015
 CYCLE:   188 TIME:   0.031 TIME LEFT:  2.00D  GRAD.:     0.121 HEAT: -179.2016
 CYCLE:   189 TIME:   0.016 TIME LEFT:  2.00D  GRAD.:     0.351 HEAT: -179.2009
 CYCLE:   190 TIME:   0.023 TIME LEFT:  2.00D  GRAD.:     0.089 HEAT: -179.2017
 CYCLE:   191 TIME:   0.016 TIME LEFT:  2.00D  GRAD.:     0.082 HEAT: -179.2017
 CYCLE:   192 TIME:   0.023 TIME LEFT:  2.00D  GRAD.:     0.130 HEAT: -179.2017
 CYCLE:   193 TIME:   0.016 TIME LEFT:  2.00D  GRAD.:     0.340 HEAT: -179.2015
 CYCLE:   194 TIME:   0.023 TIME LEFT:  2.00D  GRAD.:     0.079 HEAT: -179.2017
 CYCLE:   195 TIME:   0.031 TIME LEFT:  2.00D  GRAD.:     0.120 HEAT: -179.2017
 CYCLE:   196 TIME:   0.023 TIME LEFT:  2.00D  GRAD.:     0.115 HEAT: -179.2017
 CYCLE:   197 TIME:   0.016 TIME LEFT:  2.00D  GRAD.:     0.093 HEAT: -179.2017
 CYCLE:   198 TIME:   0.016 TIME LEFT:  2.00D  GRAD.:     0.071 HEAT: -179.2017
 CYCLE:   199 TIME:   0.016 TIME LEFT:  2.00D  GRAD.:     0.223 HEAT: -179.2017
 CYCLE:   200 TIME:   0.023 TIME LEFT:  2.00D  GRAD.:     0.431 HEAT: -179.2013
 CYCLE:   201 TIME:   0.016 TIME LEFT:  2.00D  GRAD.:     0.242 HEAT: -179.2017
 CYCLE:   202 TIME:   0.016 TIME LEFT:  2.00D  GRAD.:     0.273 HEAT: -179.2017
 CYCLE:   203 TIME:   0.016 TIME LEFT:  2.00D  GRAD.:     0.205 HEAT: -179.2016
 CYCLE:   204 TIME:   0.016 TIME LEFT:  2.00D  GRAD.:     0.077 HEAT: -179.2017
 CYCLE:   205 TIME:   0.016 TIME LEFT:  2.00D  GRAD.:     0.140 HEAT: -179.2017
 CYCLE:   206 TIME:   0.023 TIME LEFT:  2.00D  GRAD.:     0.143 HEAT: -179.2017
 CYCLE:   207 TIME:   0.016 TIME LEFT:  2.00D  GRAD.:     0.065 HEAT: -179.2017
 CYCLE:   208 TIME:   0.016 TIME LEFT:  2.00D  GRAD.:     0.070 HEAT: -179.2017
 CYCLE:   209 TIME:   0.016 TIME LEFT:  2.00D  GRAD.:     0.118 HEAT: -179.2017
 CYCLE:   210 TIME:   0.023 TIME LEFT:  2.00D  GRAD.:     0.119 HEAT: -179.2017
 CYCLE:   211 TIME:   0.016 TIME LEFT:  2.00D  GRAD.:     0.083 HEAT: -179.2017
 CYCLE:   212 TIME:   0.016 TIME LEFT:  2.00D  GRAD.:     0.064 HEAT: -179.2017
 CYCLE:   213 TIME:   0.016 TIME LEFT:  2.00D  GRAD.:     0.142 HEAT: -179.2017
 CYCLE:   214 TIME:   0.023 TIME LEFT:  2.00D  GRAD.:     0.120 HEAT: -179.2017
 CYCLE:   215 TIME:   0.016 TIME LEFT:  2.00D  GRAD.:     0.113 HEAT: -179.2017
 CYCLE:   216 TIME:   0.016 TIME LEFT:  2.00D  GRAD.:     0.070 HEAT: -179.2017


 HEAT OF FORMATION IS ESSENTIALLY STATIONARY

 -------------------------------------------------------------------------------
 AUX LARGE CHARGE=0 SINGLET  PM6  OPT PRECISE PRTXYZ
 CN394.pdb
 33


     GEOMETRY OPTIMISED USING EIGENVECTOR FOLLOWING (EF).     
     SCF FIELD WAS ACHIEVED                                   


                              PM6 CALCULATION
                                                       MOPAC2016 (Version: 20.225L)
                                                       Fri Aug 14 20:44:25 2020
                                                       No. of days remaining = 364




          FINAL HEAT OF FORMATION =       -179.20169 KCAL/MOL =    -749.77987 KJ/MOL


          TOTAL ENERGY            =      -2373.14786 EV
          ELECTRONIC ENERGY       =     -15319.60090 EV  POINT GROUP:     C1  
          CORE-CORE REPULSION     =      12946.45304 EV
          COSMO AREA              =        220.88 SQUARE ANGSTROMS
          COSMO VOLUME            =        249.56 CUBIC ANGSTROMS

          GRADIENT NORM           =          0.07017 = 0.01222 PER ATOM
          IONIZATION POTENTIAL    =         10.128745 EV
          HOMO LUMO ENERGIES (EV) =        -10.129  2.172
          NO. OF FILLED LEVELS    =         39
          MOLECULAR WEIGHT        =        188.2662

          MOLECULAR DIMENSIONS (Angstroms)

            Atom       Atom       Distance
            H    27    H    25     8.36615
            H    32    H    22     6.21055
            H    21    H    33     4.01112


          SCF CALCULATIONS        =        227
 
          WALL-CLOCK TIME         =          4.609 SECONDS
          COMPUTATION TIME        =          8.156 SECONDS




   ATOM   CHEMICAL          X               Y               Z
  NUMBER   SYMBOL      (ANGSTROMS)     (ANGSTROMS)     (ANGSTROMS)
 
     1       C         -1.78195173  *   1.16886433  *   0.42161549  *
     2       C         -1.48650393  *  -0.26194548  *   0.88405520  *
     3       C         -0.46341746  *  -0.93571826  *  -0.04829564  *
     4       C          0.90834129  *  -0.24927055  *   0.11153622  *
     5       C          0.78833474  *   1.27306993  *   0.37816210  *
     6       C         -0.54338982  *   1.90660858  *  -0.11773643  *
     7       O          1.70205205  *  -0.79976171  *   1.17518479  *
     8       O          1.79336465  *   1.96032017  *  -0.39544422  *
     9       C         -0.56875979  *   3.40365032  *   0.19123884  *
    10       C         -0.39986146  *  -2.46832491  *   0.17635595  *
    11       C          0.73608595  *  -3.10648528  *  -0.63167530  *
    12       C         -1.73761206  *  -3.12093050  *  -0.19945799  *
    13       O         -0.62311471  *   1.73004244  *  -1.54557426  *
    14       H         -2.53394614  *   1.14875570  *  -0.39985712  *
    15       H         -2.24994025  *   1.74224084  *   1.24180070  *
    16       H         -1.12129429  *  -0.26460629  *   1.92714634  *
    17       H         -2.43016917  *  -0.84489586  *   0.89750483  *
    18       H         -0.78935828  *  -0.74705366  *  -1.10832069  *
    19       H          1.55310584  *  -0.43018479  *  -0.78167832  *
    20       H          0.95977149  *   1.49334311  *   1.45387760  *
    21       H          1.15697946  *  -0.98981652  *   1.96239711  *
    22       H          2.68469009  *   1.63624152  *  -0.14542030  *
    23       H          0.35598636  *   3.88835336  *  -0.15595079  *
    24       H         -0.66336194  *   3.61092720  *   1.26020851  *
    25       H         -1.40333347  *   3.89096807  *  -0.32753385  *
    26       H         -0.20542659  *  -2.65994279  *   1.26077379  *
    27       H          0.72122139  *  -4.19804636  *  -0.54350513  *
    28       H          1.71685444  *  -2.76664209  *  -0.27060808  *
    29       H          0.66802119  *  -2.86485344  *  -1.69704223  *
    30       H         -1.72588260  *  -4.19536716  *   0.01287900  *
    31       H         -1.95808451  *  -3.00294465  *  -1.26659693  *
    32       H         -2.57423141  *  -2.68351160  *   0.35761302  *
    33       H          0.20454953  *   2.05613744  *  -1.97137950  *

                             CARTESIAN COORDINATES

   1    C       -1.781951732     1.168864330     0.421615488
   2    C       -1.486503932    -0.261945475     0.884055198
   3    C       -0.463417464    -0.935718257    -0.048295638
   4    C        0.908341287    -0.249270548     0.111536219
   5    C        0.788334744     1.273069932     0.378162105
   6    C       -0.543389819     1.906608581    -0.117736430
   7    O        1.702052055    -0.799761706     1.175184789
   8    O        1.793364646     1.960320169    -0.395444225
   9    C       -0.568759785     3.403650318     0.191238845
  10    C       -0.399861464    -2.468324907     0.176355950
  11    C        0.736085954    -3.106485276    -0.631675302
  12    C       -1.737612059    -3.120930498    -0.199457994
  13    O       -0.623114711     1.730042439    -1.545574258
  14    H       -2.533946144     1.148755698    -0.399857125
  15    H       -2.249940254     1.742240836     1.241800704
  16    H       -1.121294292    -0.264606286     1.927146337
  17    H       -2.430169173    -0.844895865     0.897504828
  18    H       -0.789358280    -0.747053665    -1.108320692
  19    H        1.553105837    -0.430184788    -0.781678322
  20    H        0.959771487     1.493343107     1.453877600
  21    H        1.156979461    -0.989816519     1.962397115
  22    H        2.684690093     1.636241517    -0.145420302
  23    H        0.355986360     3.888353364    -0.155950790
  24    H       -0.663361942     3.610927203     1.260208509
  25    H       -1.403333474     3.890968070    -0.327533854
  26    H       -0.205426591    -2.659942790     1.260773791
  27    H        0.721221394    -4.198046355    -0.543505127
  28    H        1.716854442    -2.766642085    -0.270608080
  29    H        0.668021186    -2.864853445    -1.697042227
  30    H       -1.725882601    -4.195367161     0.012879002
  31    H       -1.958084511    -3.002944654    -1.266596934
  32    H       -2.574231409    -2.683511604     0.357613019
  33    H        0.204549527     2.056137438    -1.971379501


           Empirical Formula: C10 H20 O3  =    33 atoms



      MOLECULAR POINT GROUP   :   C1  


                  EIGENVALUES  
 -31.04058 -29.95322 -29.47775 -28.61164 -27.80506 -26.24680 -25.59136 -24.15113
 -23.58250 -22.24598 -21.48353 -19.68913 -18.89940 -18.45010 -17.51371 -17.22809
 -16.10309 -15.72496 -15.27630 -15.06111 -14.99502 -14.59649 -14.02704 -13.70567
 -13.47466 -13.33647 -13.18612 -13.12275 -12.98214 -12.48303 -12.30198 -12.12215
 -11.87156 -11.56378 -11.39708 -11.20793 -11.10879 -10.44572 -10.12874   2.17214
   2.47924   2.91567   3.14297   3.38843   3.56272   3.69724   3.81073   3.94355
   4.19621   4.40183   4.47049   4.76010   5.00360   5.27153   5.40364   5.44378
   5.64200   5.68109   5.71205   5.78707   5.82593   5.86299   5.93543   5.95843
   6.06175   6.14247   6.21261   6.30656   6.38317   6.77348   6.85999   7.04458


              NET ATOMIC CHARGES AND DIPOLE CONTRIBUTIONS

  ATOM NO.   TYPE          CHARGE      No. of ELECS.   s-Pop       p-Pop       
    1          C          -0.347271        4.3473     1.10000     3.24727
    2          C          -0.256956        4.2570     1.08773     3.16922
    3          C          -0.188973        4.1890     1.10983     3.07915
    4          C           0.116195        3.8838     1.11959     2.76422
    5          C          -0.004544        4.0045     1.13713     2.86741
    6          C           0.399748        3.6003     1.08923     2.51102
    7          O          -0.571659        6.5717     1.81909     4.75257
    8          O          -0.571519        6.5715     1.82165     4.74987
    9          C          -0.576348        4.5763     1.09959     3.47676
   10          C           0.018559        3.9814     1.07955     2.90189
   11          C          -0.504186        4.5042     1.08908     3.41510
   12          C          -0.500923        4.5009     1.08948     3.41145
   13          O          -0.587374        6.5874     1.82563     4.76174
   14          H           0.174948        0.8251     0.82505
   15          H           0.149003        0.8510     0.85100
   16          H           0.123975        0.8760     0.87602
   17          H           0.141742        0.8583     0.85826
   18          H           0.171810        0.8282     0.82819
   19          H           0.152267        0.8477     0.84773
   20          H           0.136653        0.8633     0.86335
   21          H           0.312163        0.6878     0.68784
   22          H           0.323603        0.6764     0.67640
   23          H           0.184335        0.8157     0.81567
   24          H           0.163974        0.8360     0.83603
   25          H           0.176446        0.8236     0.82355
   26          H           0.107453        0.8925     0.89255
   27          H           0.151043        0.8490     0.84896
   28          H           0.166825        0.8332     0.83317
   29          H           0.152373        0.8476     0.84763
   30          H           0.151873        0.8481     0.84813
   31          H           0.156486        0.8435     0.84351
   32          H           0.147634        0.8524     0.85237
   33          H           0.330644        0.6694     0.66936
 DIPOLE           X         Y         Z       TOTAL
 POINT-CHG.    -1.613    -0.475     1.843     2.495
 HYBRID         0.632     0.081     0.102     0.645
 SUM           -0.981    -0.394     1.944     2.213


          ATOMIC ORBITAL ELECTRON POPULATIONS

     Atom    s        px        py        pz   
    1  C   1.10000   1.07569   1.02431   1.14727
    2  C   1.08773   1.09544   1.00085   1.07294
    3  C   1.10983   0.97323   0.99432   1.11160
    4  C   1.11959   0.95306   0.91177   0.89938
    5  C   1.13713   0.90333   0.95164   1.01244
    6  C   1.08923   0.89039   0.88793   0.73270
    7  O   1.81909   1.50465   1.87127   1.37664
    8  O   1.82165   1.31290   1.71842   1.71855
    9  C   1.09959   1.20986   1.08456   1.18234
   10  C   1.07955   0.92848   0.92392   1.04949
   11  C   1.08908   1.11558   1.15359   1.14593
   12  C   1.08948   1.08435   1.15163   1.17547
   13  O   1.82563   1.55029   1.88626   1.32520
   14  H   0.82505
   15  H   0.85100
   16  H   0.87602
   17  H   0.85826
   18  H   0.82819
   19  H   0.84773
   20  H   0.86335
   21  H   0.68784
   22  H   0.67640
   23  H   0.81567
   24  H   0.83603
   25  H   0.82355
   26  H   0.89255
   27  H   0.84896
   28  H   0.83317
   29  H   0.84763
   30  H   0.84813
   31  H   0.84351
   32  H   0.85237
   33  H   0.66936

 **********************
 *                    *
 * JOB ENDED NORMALLY *
 *                    *
 **********************



 TOTAL JOB TIME:             4.64 SECONDS

 == MOPAC DONE ==
